* GENERATED BY CHARMM-GUI FF-Converter
* DATE:   08/28/26   23:11:41
*
     34743  EXT
         1         1  LYS       N              33.2004263346       35.1298282572       31.5058748931  PROA      1               0.0000000000
         2         1  LYS       HT1            33.3104091932       34.2381312623       30.9865472585  PROA      1               0.0000000000
         3         1  LYS       HT2            33.9218775629       35.8397099244       31.2711771690  PROA      1               0.0000000000
         4         1  LYS       HT3            32.2409935026       35.5430783351       31.3015291448  PROA      1               0.0000000000
         5         1  LYS       CA             33.0231282107       34.9185131182       32.9496240684  PROA      1               0.0000000000
         6         1  LYS       HA             33.7986664424       35.4623621271       33.4587093496  PROA      1               0.0000000000
         7         1  LYS       CB             32.8353032904       33.4095563851       33.2600961637  PROA      1               0.0000000000
         8         1  LYS       HB1            31.9619451497       33.1129626472       32.6296654231  PROA      1               0.0000000000
         9         1  LYS       HB2            32.4852572906       33.2681917698       34.3039686987  PROA      1               0.0000000000
        10         1  LYS       CG             33.9173966464       32.3478323284       33.0429639241  PROA      1               0.0000000000
        11         1  LYS       HG1            34.6989352562       32.3914036160       33.8300593132  PROA      1               0.0000000000
        12         1  LYS       HG2            34.4080955113       32.4572202147       32.0499907259  PROA      1               0.0000000000
        13         1  LYS       CD             33.1067675338       31.0419435535       33.0753929261  PROA      1               0.0000000000
        14         1  LYS       HD1            32.5111262801       31.0572128953       32.1288102260  PROA      1               0.0000000000
        15         1  LYS       HD2            32.3908347559       31.0480109053       33.9310103020  PROA      1               0.0000000000
        16         1  LYS       CE             33.7923951904       29.7000365994       32.9986809583  PROA      1               0.0000000000
        17         1  LYS       HE1            34.3356814522       29.5926434222       32.0325281803  PROA      1               0.0000000000
        18         1  LYS       HE2            33.0046260453       28.9206563247       33.0832420336  PROA      1               0.0000000000
        19         1  LYS       NZ             34.7537853747       29.5091608319       34.0878038159  PROA      1               0.0000000000
        20         1  LYS       HZ1            34.3207042384       29.7236231570       34.9996894627  PROA      1               0.0000000000
        21         1  LYS       HZ2            35.5850117849       30.1191901495       33.9315355233  PROA      1               0.0000000000
        22         1  LYS       HZ3            35.0916539769       28.5242882762       34.0503726462  PROA      1               0.0000000000
        23         1  LYS       C              31.6485480143       35.5104579122       33.3302262041  PROA      1               0.0000000000
        24         1  LYS       OT1            30.9430527474       35.9813073576       32.4044285163  PROA      1               0.0000000000
        25         1  LYS       OT2            31.2880047612       35.4115897376       34.5156958770  PROA      1               0.0000000000
        26         2  LYS       N              33.4364379925       35.0349285485       35.8082308713  PROB      2               0.0000000000
        27         2  LYS       HT1            34.3630186780       34.7869347199       35.4339578382  PROB      2               0.0000000000
        28         2  LYS       HT2            33.3352547060       36.0662051059       36.0079340600  PROB      2               0.0000000000
        29         2  LYS       HT3            32.6109185904       34.9279808867       35.1437142665  PROB      2               0.0000000000
        30         2  LYS       CA             32.9992844469       34.4426401514       37.0158439066  PROB      2               0.0000000000
        31         2  LYS       HA             33.8184497573       34.6480630010       37.6781273398  PROB      2               0.0000000000
        32         2  LYS       CB             32.5926371339       32.9451240477       37.0683498566  PROB      2               0.0000000000
        33         2  LYS       HB1            31.6667845134       32.8264982637       36.4597378746  PROB      2               0.0000000000
        34         2  LYS       HB2            32.3006303448       32.8181420031       38.1384564678  PROB      2               0.0000000000
        35         2  LYS       CG             33.5124072424       31.7400808889       36.8372617461  PROB      2               0.0000000000
        36         2  LYS       HG1            34.4978703825       31.8700946173       37.3232267515  PROB      2               0.0000000000
        37         2  LYS       HG2            33.6736666307       31.6351051554       35.7470496807  PROB      2               0.0000000000
        38         2  LYS       CD             32.7352478413       30.5140163206       37.4018953829  PROB      2               0.0000000000
        39         2  LYS       HD1            31.7797372006       30.4786248046       36.8219638192  PROB      2               0.0000000000
        40         2  LYS       HD2            32.4197803291       30.7215523724       38.4480991118  PROB      2               0.0000000000
        41         2  LYS       CE             33.3643464870       29.1095267094       37.2890470530  PROB      2               0.0000000000
        42         2  LYS       HE1            34.3039339615       29.1603334221       36.7027088767  PROB      2               0.0000000000
        43         2  LYS       HE2            32.6453852110       28.4351400989       36.7699730126  PROB      2               0.0000000000
        44         2  LYS       NZ             33.6929927639       28.4770253017       38.5936448189  PROB      2               0.0000000000
        45         2  LYS       HZ1            32.8180456867       28.2792051668       39.1204002521  PROB      2               0.0000000000
        46         2  LYS       HZ2            34.2959880599       29.1021499397       39.1724159243  PROB      2               0.0000000000
        47         2  LYS       HZ3            34.1944421971       27.5721019880       38.4679948895  PROB      2               0.0000000000
        48         2  LYS       C              31.7576977128       35.3001010880       37.3917362320  PROB      2               0.0000000000
        49         2  LYS       OT1            31.7728378228       36.5272249191       37.1609508535  PROB      2               0.0000000000
        50         2  LYS       OT2            30.9220555374       34.7438975504       38.1251600008  PROB      2               0.0000000000
        51         3  ARG       N              32.8126572069       34.8100488047       39.7813456598  PROC      3               0.0000000000
        52         3  ARG       HT1            31.7656258043       34.7720836856       39.4769443679  PROC      3               0.0000000000
        53         3  ARG       HT2            33.2849477983       34.0848514232       39.2301787056  PROC      3               0.0000000000
        54         3  ARG       HT3            33.0291940106       35.7819093898       39.4787713290  PROC      3               0.0000000000
        55         3  ARG       CA             32.7543092006       34.6621690697       41.1193621330  PROC      3               0.0000000000
        56         3  ARG       HA             33.1468382362       33.6827827003       41.2483600520  PROC      3               0.0000000000
        57         3  ARG       CB             33.5250729910       35.9019607549       41.6800174509  PROC      3               0.0000000000
        58         3  ARG       HB1            33.3860956624       36.8071392037       41.0357466967  PROC      3               0.0000000000
        59         3  ARG       HB2            34.6124163586       35.6956491116       41.7376622031  PROC      3               0.0000000000
        60         3  ARG       CG             32.9761379309       36.3597097059       43.0306277634  PROC      3               0.0000000000
        61         3  ARG       HG1            32.8856225411       35.4739399410       43.6569474136  PROC      3               0.0000000000
        62         3  ARG       HG2            31.9314350241       36.7363362550       42.8838039496  PROC      3               0.0000000000
        63         3  ARG       CD             33.7660104428       37.3939917024       43.8091317568  PROC      3               0.0000000000
        64         3  ARG       HD1            33.7169952102       38.3718939536       43.3021050277  PROC      3               0.0000000000
        65         3  ARG       HD2            34.8284742526       37.1128780548       43.9513930594  PROC      3               0.0000000000
        66         3  ARG       NE             33.0269710850       37.4765969431       45.1095763485  PROC      3               0.0000000000
        67         3  ARG       HE             32.0411683983       37.2792477594       45.0519480283  PROC      3               0.0000000000
        68         3  ARG       CZ             33.5325860117       37.3219979868       46.3246264262  PROC      3               0.0000000000
        69         3  ARG       NH1            34.8255657284       37.2201958953       46.5526885744  PROC      3               0.0000000000
        70         3  ARG       HH11           35.4116225377       37.5723776402       45.8305156104  PROC      3               0.0000000000
        71         3  ARG       HH12           35.1016293732       37.3445877968       47.4972413244  PROC      3               0.0000000000
        72         3  ARG       NH2            32.7192698752       37.2139339512       47.3562649812  PROC      3               0.0000000000
        73         3  ARG       HH21           31.7458387542       37.0345402443       47.1803125988  PROC      3               0.0000000000
        74         3  ARG       HH22           33.0280506321       37.0887793830       48.2894068043  PROC      3               0.0000000000
        75         3  ARG       C              31.2759082119       34.6358376735       41.5006173393  PROC      3               0.0000000000
        76         3  ARG       OT1            30.3983577546       35.1217576860       40.7555388134  PROC      3               0.0000000000
        77         3  ARG       OT2            31.0352139875       34.0827221995       42.5834019012  PROC      3               0.0000000000
        78         4  PRO       N              33.2800379632       33.0455085946       43.4484555654  PROD      4               0.0000000000
        79         4  PRO       HN1            32.8282039414       32.2260097245       43.0788563516  PROD      4               0.0000000000
        80         4  PRO       HN2            32.7049319640       33.8228144203       43.1291351109  PROD      4               0.0000000000
        81         4  PRO       CD             34.7656362863       33.1284009966       43.1924652548  PROD      4               0.0000000000
        82         4  PRO       HD1            35.0214147080       33.5029941356       42.1801523718  PROD      4               0.0000000000
        83         4  PRO       HD2            35.2004152712       32.1169267930       43.3104717875  PROD      4               0.0000000000
        84         4  PRO       CA             33.0967724662       33.0744979461       44.8643268315  PROD      4               0.0000000000
        85         4  PRO       HA             33.1648311959       32.0343211637       45.1546599173  PROD      4               0.0000000000
        86         4  PRO       CB             34.2835674043       33.9417171813       45.3763482535  PROD      4               0.0000000000
        87         4  PRO       HB1            34.7408484726       33.4555682708       46.2681000535  PROD      4               0.0000000000
        88         4  PRO       HB2            33.9235690862       34.9408890138       45.6541254756  PROD      4               0.0000000000
        89         4  PRO       CG             35.3337124459       34.0278783321       44.2767392921  PROD      4               0.0000000000
        90         4  PRO       HG1            35.4842333998       35.0674950076       43.9308368543  PROD      4               0.0000000000
        91         4  PRO       HG2            36.3149287404       33.6375518279       44.6368503320  PROD      4               0.0000000000
        92         4  PRO       C              31.6888794578       33.5823563492       45.1653173094  PROD      4               0.0000000000
        93         4  PRO       OT1            31.4675289654       34.8081805657       45.2760342157  PROD      4               0.0000000000
        94         4  PRO       OT2            30.9845440056       32.6882562617       45.7115715718  PROD      4               0.0000000000
        95         5  LYS       N              32.4790174664       33.5213901296       47.6461262467  PROE      5               0.0000000000
        96         5  LYS       HT1            33.3798510085       33.9012747681       47.3321746856  PROE      5               0.0000000000
        97         5  LYS       HT2            31.7543123069       34.3077459389       47.5445087270  PROE      5               0.0000000000
        98         5  LYS       HT3            32.0154855453       32.8598167289       46.9601994346  PROE      5               0.0000000000
        99         5  LYS       CA             32.2978418486       33.1609504373       48.9249352033  PROE      5               0.0000000000
       100         5  LYS       HA             33.2642326523       33.2448886052       49.3542264111  PROE      5               0.0000000000
       101         5  LYS       CB             31.6508908289       31.7566401467       48.9548945065  PROE      5               0.0000000000
       102         5  LYS       HB1            30.9301519433       31.6046691233       48.1164100054  PROE      5               0.0000000000
       103         5  LYS       HB2            31.0055393709       31.7389792290       49.8678250086  PROE      5               0.0000000000
       104         5  LYS       CG             32.6508758299       30.5925889269       49.0179196155  PROE      5               0.0000000000
       105         5  LYS       HG1            33.4260173394       30.8794511849       49.7601595832  PROE      5               0.0000000000
       106         5  LYS       HG2            33.1413937563       30.4247144993       48.0367810900  PROE      5               0.0000000000
       107         5  LYS       CD             31.9518701435       29.3381495555       49.5472652837  PROE      5               0.0000000000
       108         5  LYS       HD1            31.5031396103       28.7031308585       48.7709248361  PROE      5               0.0000000000
       109         5  LYS       HD2            31.0770081808       29.6643298777       50.1711811450  PROE      5               0.0000000000
       110         5  LYS       CE             32.7908759901       28.4960092273       50.4895304451  PROE      5               0.0000000000
       111         5  LYS       HE1            32.1369129683       27.7378568812       50.9625661681  PROE      5               0.0000000000
       112         5  LYS       HE2            33.2115616613       29.1263354299       51.3105831437  PROE      5               0.0000000000
       113         5  LYS       NZ             33.8933209740       27.8416912396       49.7966848077  PROE      5               0.0000000000
       114         5  LYS       HZ1            34.2409910906       27.0339579677       50.3602009439  PROE      5               0.0000000000
       115         5  LYS       HZ2            34.6997465527       28.4826863658       49.6507200886  PROE      5               0.0000000000
       116         5  LYS       HZ3            33.5600913975       27.4732409031       48.8801273649  PROE      5               0.0000000000
       117         5  LYS       C              31.4052174942       34.3006805624       49.4256520402  PROE      5               0.0000000000
       118         5  LYS       OT1            30.7145563754       35.0164657571       48.6492031055  PROE      5               0.0000000000
       119         5  LYS       OT2            31.6162570109       34.5980497308       50.6169723985  PROE      5               0.0000000000
       120         6  PRO       N              33.0073478935       32.6152633188       51.6833003230  PROF      6               0.0000000000
       121         6  PRO       HN1            32.7341575335       31.6768239678       51.4740300172  PROF      6               0.0000000000
       122         6  PRO       HN2            32.3716147290       33.2524156382       51.1994680987  PROF      6               0.0000000000
       123         6  PRO       CD             34.4384274236       33.0017050286       51.5987173612  PROF      6               0.0000000000
       124         6  PRO       HD1            34.8324965796       33.0777652370       50.5662775589  PROF      6               0.0000000000
       125         6  PRO       HD2            35.0093032281       32.2590782710       52.1916548678  PROF      6               0.0000000000
       126         6  PRO       CA             32.6272682967       32.8855761007       53.0538111785  PROF      6               0.0000000000
       127         6  PRO       HA             33.0641933383       32.0987352119       53.6547316906  PROF      6               0.0000000000
       128         6  PRO       CB             33.2399479882       34.2864422466       53.2417721137  PROF      6               0.0000000000
       129         6  PRO       HB1            33.4654620832       34.4600136266       54.3156743160  PROF      6               0.0000000000
       130         6  PRO       HB2            32.5024569060       35.0572655782       52.9130556358  PROF      6               0.0000000000
       131         6  PRO       CG             34.4922443499       34.3279282862       52.3397616817  PROF      6               0.0000000000
       132         6  PRO       HG1            34.4287355932       35.2022714602       51.6584047788  PROF      6               0.0000000000
       133         6  PRO       HG2            35.4141289706       34.4070910371       52.9583428785  PROF      6               0.0000000000
       134         6  PRO       C              31.1329850708       32.7891037904       53.1630549172  PROF      6               0.0000000000
       135         6  PRO       OT1            30.4298576067       32.4295470736       52.1768889411  PROF      6               0.0000000000
       136         6  PRO       OT2            30.6776028077       32.9726241519       54.3180661942  PROF      6               0.0000000000
       137         7  POPC      N              28.4342428914       28.3562797868       62.1591864633  MEMB      1               0.0000000000
       138         7  POPC      C12            28.9707514345       27.4139491752       61.0892582641  MEMB      1               0.0000000000
       139         7  POPC      H12A           29.5784542968       27.9747299852       60.3829839447  MEMB      1               0.0000000000
       140         7  POPC      H12B           28.1321560320       26.9801206246       60.5525296898  MEMB      1               0.0000000000
       141         7  POPC      C13            29.5819015869       29.0026017633       62.8719058910  MEMB      1               0.0000000000
       142         7  POPC      H13A           29.2592216590       29.5646663972       63.7402178652  MEMB      1               0.0000000000
       143         7  POPC      H13B           30.2919570167       28.2214554485       63.1588449060  MEMB      1               0.0000000000
       144         7  POPC      H13C           30.1228576907       29.6342908821       62.1767071375  MEMB      1               0.0000000000
       145         7  POPC      C14            27.5549620895       29.4154389201       61.5917998054  MEMB      1               0.0000000000
       146         7  POPC      H14A           26.7111705567       29.0074705895       61.0406640843  MEMB      1               0.0000000000
       147         7  POPC      H14B           27.1456073582       30.0129553521       62.3982727181  MEMB      1               0.0000000000
       148         7  POPC      H14C           28.1199329004       30.0734129885       60.9343922631  MEMB      1               0.0000000000
       149         7  POPC      C15            27.6272762158       27.5471971619       63.1143724533  MEMB      1               0.0000000000
       150         7  POPC      H15A           28.2295335274       26.7296381198       63.4911092073  MEMB      1               0.0000000000
       151         7  POPC      H15B           26.7860885813       27.0879653094       62.5830501053  MEMB      1               0.0000000000
       152         7  POPC      H15C           27.2289135542       28.1295271698       63.9256940917  MEMB      1               0.0000000000
       153         7  POPC      C11            29.8748836361       26.2487464075       61.5745442903  MEMB      1               0.0000000000
       154         7  POPC      H11A           29.9654395200       25.5048198257       60.7441975762  MEMB      1               0.0000000000
       155         7  POPC      H11B           29.3719026820       25.7059605074       62.4038926779  MEMB      1               0.0000000000
       156         7  POPC      P              32.2785903655       26.9626191923       60.9131073835  MEMB      1               0.0000000000
       157         7  POPC      O13            32.3835736559       25.7563597002       60.0602862103  MEMB      1               0.0000000000
       158         7  POPC      O14            33.5142655374       27.4510947390       61.5737844536  MEMB      1               0.0000000000
       159         7  POPC      O12            31.1559887920       26.7167273160       62.0223325341  MEMB      1               0.0000000000
       160         7  POPC      O11            31.6301582634       28.1695060362       60.0788580023  MEMB      1               0.0000000000
       161         7  POPC      C1             32.1790513569       29.5000189710       60.1892375127  MEMB      1               0.0000000000
       162         7  POPC      HA             33.2211550382       29.5255346631       60.5910721706  MEMB      1               0.0000000000
       163         7  POPC      HB             31.5696281891       30.0866581388       60.9095893089  MEMB      1               0.0000000000
       164         7  POPC      C2             32.2387090461       30.2936746842       58.8300961992  MEMB      1               0.0000000000
       165         7  POPC      HS             32.3849484822       31.3667845814       59.0951388554  MEMB      1               0.0000000000
       166         7  POPC      O21            31.0771000519       30.1742465614       57.9977260141  MEMB      1               0.0000000000
       167         7  POPC      C21            29.8849466961       30.2684496918       58.5286146281  MEMB      1               0.0000000000
       168         7  POPC      O22            29.5961643384       30.6600678268       59.6450397252  MEMB      1               0.0000000000
       169         7  POPC      C22            28.8813267303       29.7354115558       57.5178953878  MEMB      1               0.0000000000
       170         7  POPC      H2R            29.1080455449       30.2134792386       56.5406258622  MEMB      1               0.0000000000
       171         7  POPC      H2S            27.8655675955       30.0418200308       57.8348370620  MEMB      1               0.0000000000
       172         7  POPC      C3             33.4630179491       29.8788970349       57.9558132166  MEMB      1               0.0000000000
       173         7  POPC      HX             34.3703874946       29.8965985989       58.6005033600  MEMB      1               0.0000000000
       174         7  POPC      HY             33.6103543948       30.6500074040       57.1641572871  MEMB      1               0.0000000000
       175         7  POPC      O31            33.2814714836       28.5482383769       57.4257712866  MEMB      1               0.0000000000
       176         7  POPC      C31            33.0663163100       28.4095630693       56.1238183207  MEMB      1               0.0000000000
       177         7  POPC      O32            33.2395614160       29.2645965657       55.2696390687  MEMB      1               0.0000000000
       178         7  POPC      C32            32.6585524523       26.9620300829       55.8477720475  MEMB      1               0.0000000000
       179         7  POPC      H2X            31.6316748913       26.7948248084       56.2204735758  MEMB      1               0.0000000000
       180         7  POPC      H2Y            33.3420000483       26.3255602399       56.4555175204  MEMB      1               0.0000000000
       181         7  POPC      C23            29.0005001142       28.1981638950       57.4188434664  MEMB      1               0.0000000000
       182         7  POPC      H3R            28.8126646295       27.7224679788       58.4045268555  MEMB      1               0.0000000000
       183         7  POPC      H3S            30.0466037928       27.9448729328       57.1285643219  MEMB      1               0.0000000000
       184         7  POPC      C24            28.0586370961       27.5758448168       56.3854145537  MEMB      1               0.0000000000
       185         7  POPC      H4R            26.9994659134       27.7069794072       56.6948983981  MEMB      1               0.0000000000
       186         7  POPC      H4S            28.2694172369       26.4847209863       56.3405054374  MEMB      1               0.0000000000
       187         7  POPC      C25            28.2619290153       28.1711907588       54.9927179710  MEMB      1               0.0000000000
       188         7  POPC      H5R            29.3494011105       28.2365220027       54.7608013485  MEMB      1               0.0000000000
       189         7  POPC      H5S            27.8700786687       29.2115622456       54.9963248035  MEMB      1               0.0000000000
       190         7  POPC      C26            27.5654170268       27.3648360951       53.8959323050  MEMB      1               0.0000000000
       191         7  POPC      H6R            26.9253988501       26.5795307090       54.3564609806  MEMB      1               0.0000000000
       192         7  POPC      H6S            28.3376946782       26.8400535635       53.2884340557  MEMB      1               0.0000000000
       193         7  POPC      C27            26.7035220408       28.2430428048       52.9818074749  MEMB      1               0.0000000000
       194         7  POPC      H7R            25.8557956684       28.6631313869       53.5663186890  MEMB      1               0.0000000000
       195         7  POPC      H7S            26.2698846223       27.5725246870       52.2057600215  MEMB      1               0.0000000000
       196         7  POPC      C28            27.5006403165       29.3989630021       52.3420287125  MEMB      1               0.0000000000
       197         7  POPC      H8R            28.5175808940       29.0305680049       52.0738841493  MEMB      1               0.0000000000
       198         7  POPC      H8S            27.6627362652       30.2115775548       53.0836065285  MEMB      1               0.0000000000
       199         7  POPC      C29            26.7965382156       29.9520648540       51.1364235189  MEMB      1               0.0000000000
       200         7  POPC      H91            26.3637219372       30.9584743106       51.2495955102  MEMB      1               0.0000000000
       201         7  POPC      C210           26.7066153492       29.3086395144       49.9642562796  MEMB      1               0.0000000000
       202         7  POPC      H101           26.1640403859       29.7927165641       49.1392726164  MEMB      1               0.0000000000
       203         7  POPC      C211           27.2955279037       27.9462163905       49.6794049992  MEMB      1               0.0000000000
       204         7  POPC      H11R           26.5284951964       27.1516225234       49.8311186180  MEMB      1               0.0000000000
       205         7  POPC      H11S           28.1413480298       27.7084583876       50.3639620338  MEMB      1               0.0000000000
       206         7  POPC      C212           27.8165992721       27.8475889750       48.2398095616  MEMB      1               0.0000000000
       207         7  POPC      H12R           28.3551045983       26.8782111887       48.1238658275  MEMB      1               0.0000000000
       208         7  POPC      H12S           28.5444707611       28.6626604018       48.0291369045  MEMB      1               0.0000000000
       209         7  POPC      C213           26.6651941576       27.8724766425       47.2336965403  MEMB      1               0.0000000000
       210         7  POPC      H13R           26.0532172005       28.7953991784       47.3348677716  MEMB      1               0.0000000000
       211         7  POPC      H13S           25.9985729737       27.0091197378       47.4673243728  MEMB      1               0.0000000000
       212         7  POPC      C214           27.1228602526       27.7671557094       45.7832746198  MEMB      1               0.0000000000
       213         7  POPC      H14R           27.9253024802       26.9986983499       45.6997410634  MEMB      1               0.0000000000
       214         7  POPC      H14S           27.5451386434       28.7397765349       45.4421839327  MEMB      1               0.0000000000
       215         7  POPC      C215           25.9400379092       27.3448878810       44.9169121944  MEMB      1               0.0000000000
       216         7  POPC      H15R           25.1494646889       28.1271303058       44.9422534450  MEMB      1               0.0000000000
       217         7  POPC      H15S           25.5063372900       26.4197524631       45.3598855178  MEMB      1               0.0000000000
       218         7  POPC      C216           26.3177900278       27.0365759559       43.4718042883  MEMB      1               0.0000000000
       219         7  POPC      H16R           25.4444831177       26.5171430389       43.0253845968  MEMB      1               0.0000000000
       220         7  POPC      H16S           27.1914901699       26.3485006531       43.4327712858  MEMB      1               0.0000000000
       221         7  POPC      C217           26.5870345033       28.2834297363       42.6381506434  MEMB      1               0.0000000000
       222         7  POPC      H17R           27.5286297304       28.7638439597       42.9867565461  MEMB      1               0.0000000000
       223         7  POPC      H17S           25.7599470444       29.0047114965       42.8241084332  MEMB      1               0.0000000000
       224         7  POPC      C218           26.6512893586       28.0020249177       41.1372842275  MEMB      1               0.0000000000
       225         7  POPC      H18R           26.2230394378       27.0192927436       40.8736168050  MEMB      1               0.0000000000
       226         7  POPC      H18S           27.6960786314       28.0384117888       40.7642373465  MEMB      1               0.0000000000
       227         7  POPC      H18T           26.0362897394       28.7523748839       40.5986112044  MEMB      1               0.0000000000
       228         7  POPC      C33            32.7960290388       26.5409209221       54.3611089660  MEMB      1               0.0000000000
       229         7  POPC      H3X            33.1714428654       25.4893148663       54.3873982880  MEMB      1               0.0000000000
       230         7  POPC      H3Y            33.5638287230       27.1601784558       53.8536071601  MEMB      1               0.0000000000
       231         7  POPC      C34            31.4966291515       26.5170238515       53.5348032309  MEMB      1               0.0000000000
       232         7  POPC      H4X            31.2160999950       27.5431616687       53.2141862937  MEMB      1               0.0000000000
       233         7  POPC      H4Y            30.6726336338       26.1571627212       54.1896675609  MEMB      1               0.0000000000
       234         7  POPC      C35            31.6002856221       25.5344164132       52.3510338004  MEMB      1               0.0000000000
       235         7  POPC      H5X            31.8859574017       24.5410264666       52.7627322144  MEMB      1               0.0000000000
       236         7  POPC      H5Y            32.4212896443       25.8204081838       51.6722428087  MEMB      1               0.0000000000
       237         7  POPC      C36            30.3142001541       25.3520957385       51.5268503665  MEMB      1               0.0000000000
       238         7  POPC      H6X            30.0264333716       26.2944403311       51.0157179500  MEMB      1               0.0000000000
       239         7  POPC      H6Y            29.4899719682       25.1050271994       52.2340856582  MEMB      1               0.0000000000
       240         7  POPC      C37            30.4581918471       24.2008421315       50.5113301259  MEMB      1               0.0000000000
       241         7  POPC      H7X            29.6299650893       23.4703298041       50.6625239611  MEMB      1               0.0000000000
       242         7  POPC      H7Y            31.3961479159       23.6492410496       50.7467841717  MEMB      1               0.0000000000
       243         7  POPC      C38            30.5122636811       24.6127496237       49.0231620338  MEMB      1               0.0000000000
       244         7  POPC      H8X            29.4766949498       24.7920563855       48.6533331188  MEMB      1               0.0000000000
       245         7  POPC      H8Y            30.9044856707       23.7369765381       48.4562171658  MEMB      1               0.0000000000
       246         7  POPC      C39            31.3905022434       25.8521991246       48.7223796621  MEMB      1               0.0000000000
       247         7  POPC      H9X            31.9929341887       26.0413618882       49.6259604260  MEMB      1               0.0000000000
       248         7  POPC      H9Y            30.7027439984       26.7090259244       48.5550371301  MEMB      1               0.0000000000
       249         7  POPC      C310           32.3531488206       25.6643005860       47.5339849677  MEMB      1               0.0000000000
       250         7  POPC      H10X           31.7775918081       25.1804164831       46.7259136207  MEMB      1               0.0000000000
       251         7  POPC      H10Y           33.1430653035       24.9371965270       47.8198341778  MEMB      1               0.0000000000
       252         7  POPC      C311           33.0358000793       26.8771816017       46.8591907768  MEMB      1               0.0000000000
       253         7  POPC      H11X           33.5977847633       26.4117448893       46.0150935434  MEMB      1               0.0000000000
       254         7  POPC      H11Y           33.8207695706       27.3639979592       47.4481116989  MEMB      1               0.0000000000
       255         7  POPC      C312           32.1373264173       27.9282320855       46.1893089446  MEMB      1               0.0000000000
       256         7  POPC      H12X           32.7962978317       28.6629788118       45.6701690056  MEMB      1               0.0000000000
       257         7  POPC      H12Y           31.4909147990       28.5062262104       46.8727575773  MEMB      1               0.0000000000
       258         7  POPC      C313           31.1744089869       27.3018280567       45.1859547698  MEMB      1               0.0000000000
       259         7  POPC      H13X           30.3813219955       26.7736830731       45.7637250451  MEMB      1               0.0000000000
       260         7  POPC      H13Y           31.7042166883       26.5461231881       44.5656106429  MEMB      1               0.0000000000
       261         7  POPC      C314           30.5174236612       28.3518128112       44.2891085741  MEMB      1               0.0000000000
       262         7  POPC      H14X           30.1035757058       29.1886267738       44.9000805527  MEMB      1               0.0000000000
       263         7  POPC      H14Y           29.6592967042       27.8628255784       43.7747585311  MEMB      1               0.0000000000
       264         7  POPC      C315           31.4705519201       28.9201422589       43.2297265563  MEMB      1               0.0000000000
       265         7  POPC      H15X           32.2998674165       28.1940213980       43.0684737740  MEMB      1               0.0000000000
       266         7  POPC      H15Y           31.9110802761       29.8638610602       43.6222628868  MEMB      1               0.0000000000
       267         7  POPC      C316           30.7495118363       29.1655279252       41.9047246849  MEMB      1               0.0000000000
       268         7  POPC      H16X           30.5979096360       28.2014795418       41.3717431381  MEMB      1               0.0000000000
       269         7  POPC      H16Y           31.2884549722       29.8816677767       41.2575428171  MEMB      1               0.0000000000
       270         7  POPC      H16Z           29.7452407330       29.5942897785       42.1137145435  MEMB      1               0.0000000000
       271         8  POPC      N              31.3055764837       39.9061264867       63.4325360942  MEMB      2               0.0000000000
       272         8  POPC      C12            31.2514180527       40.3160833684       61.9681183867  MEMB      2               0.0000000000
       273         8  POPC      H12A           32.1220232357       40.9409737691       61.7511735469  MEMB      2               0.0000000000
       274         8  POPC      H12B           30.3888659661       40.9373719489       61.7950535263  MEMB      2               0.0000000000
       275         8  POPC      C13            32.6019336503       39.1899317729       63.6882672721  MEMB      2               0.0000000000
       276         8  POPC      H13A           32.6165478429       38.7364496820       64.6694575045  MEMB      2               0.0000000000
       277         8  POPC      H13B           32.7252457325       38.4080375366       62.9336607200  MEMB      2               0.0000000000
       278         8  POPC      H13C           33.4491892714       39.8483135898       63.5907943016  MEMB      2               0.0000000000
       279         8  POPC      C14            31.2410392201       41.0769850927       64.3448562216  MEMB      2               0.0000000000
       280         8  POPC      H14A           30.2733352875       41.5491460643       64.3284140549  MEMB      2               0.0000000000
       281         8  POPC      H14B           31.4359713789       40.7582104299       65.3615510579  MEMB      2               0.0000000000
       282         8  POPC      H14C           31.9881204928       41.8300463211       64.1029327696  MEMB      2               0.0000000000
       283         8  POPC      C15            30.2421769267       38.9105057144       63.7889127368  MEMB      2               0.0000000000
       284         8  POPC      H15A           30.4340384080       38.0098216588       63.2037669219  MEMB      2               0.0000000000
       285         8  POPC      H15B           29.2506486530       39.2800736444       63.6164006656  MEMB      2               0.0000000000
       286         8  POPC      H15C           30.3477062009       38.5988530635       64.8285181406  MEMB      2               0.0000000000
       287         8  POPC      C11            31.2475379704       39.1953577617       60.8960992299  MEMB      2               0.0000000000
       288         8  POPC      H11A           31.1123661241       39.6506409421       59.8835854875  MEMB      2               0.0000000000
       289         8  POPC      H11B           30.3806664245       38.5183161282       61.0528705145  MEMB      2               0.0000000000
       290         8  POPC      P              33.6670721289       38.6547438506       60.0154509856  MEMB      2               0.0000000000
       291         8  POPC      O13            33.2304113471       38.4961631196       58.6122254321  MEMB      2               0.0000000000
       292         8  POPC      O14            34.7664229983       37.7988547123       60.5090559757  MEMB      2               0.0000000000
       293         8  POPC      O12            32.4301018957       38.4131529193       60.9691573844  MEMB      2               0.0000000000
       294         8  POPC      O11            33.9959894704       40.1759705297       60.3175070793  MEMB      2               0.0000000000
       295         8  POPC      C1             34.6615519651       40.5971149195       61.5159965593  MEMB      2               0.0000000000
       296         8  POPC      HA             35.4066716328       39.8520586362       61.8890356919  MEMB      2               0.0000000000
       297         8  POPC      HB             33.9092890842       40.7798763446       62.2986027135  MEMB      2               0.0000000000
       298         8  POPC      C2             35.3715997443       41.9808946866       61.3826056974  MEMB      2               0.0000000000
       299         8  POPC      HS             35.3901581825       42.4858113916       62.3779730224  MEMB      2               0.0000000000
       300         8  POPC      O21            34.7314493558       42.8170943593       60.4121659502  MEMB      2               0.0000000000
       301         8  POPC      C21            33.5606560281       43.2561709421       60.6991197740  MEMB      2               0.0000000000
       302         8  POPC      O22            32.9421112210       43.0874768665       61.7480847376  MEMB      2               0.0000000000
       303         8  POPC      C22            33.0724879329       44.0911199252       59.5110019443  MEMB      2               0.0000000000
       304         8  POPC      H2R            33.9624855838       44.4945364844       58.9803214593  MEMB      2               0.0000000000
       305         8  POPC      H2S            32.5062958449       44.9449431761       59.9177582738  MEMB      2               0.0000000000
       306         8  POPC      C3             36.8426545115       41.8057424777       60.9603589778  MEMB      2               0.0000000000
       307         8  POPC      HX             37.3956602109       41.3694499579       61.8131984192  MEMB      2               0.0000000000
       308         8  POPC      HY             37.2787217903       42.8053317747       60.7381896512  MEMB      2               0.0000000000
       309         8  POPC      O31            36.9743434759       40.8882724449       59.8747284249  MEMB      2               0.0000000000
       310         8  POPC      C31            36.5710063233       41.3228471198       58.7070212230  MEMB      2               0.0000000000
       311         8  POPC      O32            36.3167348219       42.4687780140       58.3829260734  MEMB      2               0.0000000000
       312         8  POPC      C32            36.5821441601       40.1656810466       57.7307838647  MEMB      2               0.0000000000
       313         8  POPC      H2X            36.0681257136       39.2891323730       58.1754154565  MEMB      2               0.0000000000
       314         8  POPC      H2Y            37.6465880890       39.9229399848       57.5708628911  MEMB      2               0.0000000000
       315         8  POPC      C23            32.1846766683       43.2748011289       58.5476143027  MEMB      2               0.0000000000
       316         8  POPC      H3R            32.7482000027       42.3850123139       58.1858977481  MEMB      2               0.0000000000
       317         8  POPC      H3S            31.9528963015       43.9005706548       57.6563584588  MEMB      2               0.0000000000
       318         8  POPC      C24            30.8836975983       42.8258604249       59.2222248059  MEMB      2               0.0000000000
       319         8  POPC      H4R            30.3252874791       43.7092516226       59.5967285831  MEMB      2               0.0000000000
       320         8  POPC      H4S            31.1562696612       42.1975483389       60.0967819597  MEMB      2               0.0000000000
       321         8  POPC      C25            29.9934966191       41.9723191889       58.3163414111  MEMB      2               0.0000000000
       322         8  POPC      H5R            29.2641159506       41.4132017895       58.9432463646  MEMB      2               0.0000000000
       323         8  POPC      H5S            30.6418297419       41.2113047578       57.8254900084  MEMB      2               0.0000000000
       324         8  POPC      C26            29.2160660306       42.7885334888       57.2738554341  MEMB      2               0.0000000000
       325         8  POPC      H6R            29.8686758348       43.5698796007       56.8278760600  MEMB      2               0.0000000000
       326         8  POPC      H6S            28.3751952719       43.3127141554       57.7830530933  MEMB      2               0.0000000000
       327         8  POPC      C27            28.6454631527       41.9187052677       56.1416144423  MEMB      2               0.0000000000
       328         8  POPC      H7R            27.9059732127       42.5089208654       55.5541429791  MEMB      2               0.0000000000
       329         8  POPC      H7S            28.0930518858       41.0690605376       56.6008016334  MEMB      2               0.0000000000
       330         8  POPC      C28            29.7078321870       41.3488629616       55.1777426956  MEMB      2               0.0000000000
       331         8  POPC      H8R            29.2365097609       40.5160202000       54.6138939408  MEMB      2               0.0000000000
       332         8  POPC      H8S            30.5281365507       40.8780707038       55.7592448448  MEMB      2               0.0000000000
       333         8  POPC      C29            30.2811545622       42.3969601905       54.2555328900  MEMB      2               0.0000000000
       334         8  POPC      H91            30.9160156396       43.1476088882       54.7530930902  MEMB      2               0.0000000000
       335         8  POPC      C210           30.1209712042       42.4649833666       52.9207990253  MEMB      2               0.0000000000
       336         8  POPC      H101           30.6260342329       43.2731497496       52.3685085849  MEMB      2               0.0000000000
       337         8  POPC      C211           29.3341361183       41.5098476248       52.0580886461  MEMB      2               0.0000000000
       338         8  POPC      H11R           28.6813947296       42.0861981963       51.3651596936  MEMB      2               0.0000000000
       339         8  POPC      H11S           28.6546828343       40.8659614440       52.6575108698  MEMB      2               0.0000000000
       340         8  POPC      C212           30.2500136753       40.5965145593       51.2187180583  MEMB      2               0.0000000000
       341         8  POPC      H12R           30.9360806541       40.0117273436       51.8725531001  MEMB      2               0.0000000000
       342         8  POPC      H12S           30.8796555763       41.2338458924       50.5563466314  MEMB      2               0.0000000000
       343         8  POPC      C213           29.4354323048       39.6333809927       50.3450949021  MEMB      2               0.0000000000
       344         8  POPC      H13R           28.5848847635       40.2127998484       49.9190232663  MEMB      2               0.0000000000
       345         8  POPC      H13S           29.0117199980       38.8124912981       50.9667465808  MEMB      2               0.0000000000
       346         8  POPC      C214           30.2276065913       39.0375442285       49.1706489768  MEMB      2               0.0000000000
       347         8  POPC      H14R           30.9558999345       38.2845362217       49.5453940178  MEMB      2               0.0000000000
       348         8  POPC      H14S           30.7980540394       39.8609409975       48.6862006262  MEMB      2               0.0000000000
       349         8  POPC      C215           29.2925974149       38.3958219641       48.1296142935  MEMB      2               0.0000000000
       350         8  POPC      H15R           28.4084919084       39.0537563317       48.0319806487  MEMB      2               0.0000000000
       351         8  POPC      H15S           28.9354646211       37.4075174229       48.5038632184  MEMB      2               0.0000000000
       352         8  POPC      C216           29.8866014717       38.2396334345       46.7214383256  MEMB      2               0.0000000000
       353         8  POPC      H16R           30.1689092011       37.1702494794       46.5757662983  MEMB      2               0.0000000000
       354         8  POPC      H16S           30.7880214570       38.8862980153       46.6289556579  MEMB      2               0.0000000000
       355         8  POPC      C217           28.9226372706       38.6238960476       45.5911186728  MEMB      2               0.0000000000
       356         8  POPC      H17R           28.6277516217       39.6910088036       45.7140685258  MEMB      2               0.0000000000
       357         8  POPC      H17S           27.9994357250       38.0054839701       45.6818398825  MEMB      2               0.0000000000
       358         8  POPC      C218           29.5277364435       38.4137376992       44.1991287280  MEMB      2               0.0000000000
       359         8  POPC      H18R           28.8502322144       38.8026449118       43.4095907087  MEMB      2               0.0000000000
       360         8  POPC      H18S           29.6921946894       37.3278781912       44.0067891782  MEMB      2               0.0000000000
       361         8  POPC      H18T           30.4999986642       38.9410390259       44.1078557264  MEMB      2               0.0000000000
       362         8  POPC      C33            35.9444433006       40.5758989706       56.3935891334  MEMB      2               0.0000000000
       363         8  POPC      H3X            36.2757429777       39.8591213392       55.6108595248  MEMB      2               0.0000000000
       364         8  POPC      H3Y            36.2981250962       41.5848941828       56.0847348190  MEMB      2               0.0000000000
       365         8  POPC      C34            34.4133637953       40.5981603114       56.4395913396  MEMB      2               0.0000000000
       366         8  POPC      H4X            34.0851631145       40.9431413245       57.4434603108  MEMB      2               0.0000000000
       367         8  POPC      H4Y            34.0151972882       39.5654119317       56.3186767759  MEMB      2               0.0000000000
       368         8  POPC      C35            33.8378655897       41.5366256066       55.3710444110  MEMB      2               0.0000000000
       369         8  POPC      H5X            34.2625270803       42.5541962723       55.5263379610  MEMB      2               0.0000000000
       370         8  POPC      H5Y            32.7352007035       41.6065706856       55.4836744139  MEMB      2               0.0000000000
       371         8  POPC      C36            34.1817679369       41.0472114143       53.9614192760  MEMB      2               0.0000000000
       372         8  POPC      H6X            33.6095152666       40.1129910240       53.7602841187  MEMB      2               0.0000000000
       373         8  POPC      H6Y            35.2594255344       40.7785899146       53.9146493246  MEMB      2               0.0000000000
       374         8  POPC      C37            33.9357284176       42.0641466968       52.8432153938  MEMB      2               0.0000000000
       375         8  POPC      H7X            34.4050482343       43.0382280195       53.1044282852  MEMB      2               0.0000000000
       376         8  POPC      H7Y            32.8423878165       42.2155759667       52.7261644304  MEMB      2               0.0000000000
       377         8  POPC      C38            34.5340181297       41.5153569215       51.5441623765  MEMB      2               0.0000000000
       378         8  POPC      H8X            34.2032799300       40.4547112746       51.4529167071  MEMB      2               0.0000000000
       379         8  POPC      H8Y            35.6417742640       41.4976931512       51.6305598897  MEMB      2               0.0000000000
       380         8  POPC      C39            34.1387462590       42.2370550625       50.2533964839  MEMB      2               0.0000000000
       381         8  POPC      H9X            34.7812531305       43.1321114168       50.1037475175  MEMB      2               0.0000000000
       382         8  POPC      H9Y            33.0814460550       42.5811634216       50.3178808101  MEMB      2               0.0000000000
       383         8  POPC      C310           34.2658809122       41.2437495810       49.0890339133  MEMB      2               0.0000000000
       384         8  POPC      H10X           33.4217104240       40.5255490163       49.1944275277  MEMB      2               0.0000000000
       385         8  POPC      H10Y           35.2023239734       40.6543557005       49.1960748511  MEMB      2               0.0000000000
       386         8  POPC      C311           34.2251301363       41.8625897482       47.6895114059  MEMB      2               0.0000000000
       387         8  POPC      H11X           35.1794862511       42.3815087059       47.4717185831  MEMB      2               0.0000000000
       388         8  POPC      H11Y           33.4264475818       42.6385536675       47.6703534222  MEMB      2               0.0000000000
       389         8  POPC      C312           33.8987581334       40.8131610075       46.6157563087  MEMB      2               0.0000000000
       390         8  POPC      H12X           33.2110291681       41.2716513038       45.8815732275  MEMB      2               0.0000000000
       391         8  POPC      H12Y           33.3037357561       39.9991114093       47.0864648538  MEMB      2               0.0000000000
       392         8  POPC      C313           35.1066962537       40.1982589038       45.8830792610  MEMB      2               0.0000000000
       393         8  POPC      H13X           34.7209290069       39.5125235850       45.1043410595  MEMB      2               0.0000000000
       394         8  POPC      H13Y           35.6725825847       39.5926248603       46.6172108790  MEMB      2               0.0000000000
       395         8  POPC      C314           36.0949477802       41.1550187977       45.2015806276  MEMB      2               0.0000000000
       396         8  POPC      H14X           36.5298280714       41.8197958473       45.9751642177  MEMB      2               0.0000000000
       397         8  POPC      H14Y           35.5910492885       41.8048183958       44.4613086046  MEMB      2               0.0000000000
       398         8  POPC      C315           37.2529207664       40.4209614186       44.5051005301  MEMB      2               0.0000000000
       399         8  POPC      H15X           37.5930905401       39.5800632218       45.1453218955  MEMB      2               0.0000000000
       400         8  POPC      H15Y           38.1078169533       41.1295915384       44.4190403503  MEMB      2               0.0000000000
       401         8  POPC      C316           36.9311745192       39.9134361982       43.0994903353  MEMB      2               0.0000000000
       402         8  POPC      H16X           37.8247316169       39.4252679318       42.6532708164  MEMB      2               0.0000000000
       403         8  POPC      H16Y           36.6389712349       40.7640533417       42.4457601635  MEMB      2               0.0000000000
       404         8  POPC      H16Z           36.0986392069       39.1835977104       43.1157141525  MEMB      2               0.0000000000
       405         9  POPC      N              39.4604776857       33.6148989889       63.2407382076  MEMB      3               0.0000000000
       406         9  POPC      C12            38.7192150413       32.2791706272       63.3256360994  MEMB      3               0.0000000000
       407         9  POPC      H12A           37.8907609145       32.3655491922       64.0172471092  MEMB      3               0.0000000000
       408         9  POPC      H12B           39.4184933601       31.5432905148       63.7288908391  MEMB      3               0.0000000000
       409         9  POPC      C13            39.7144016116       34.1796509004       64.6023156896  MEMB      3               0.0000000000
       410         9  POPC      H13A           40.1297599662       33.4383024900       65.2777750946  MEMB      3               0.0000000000
       411         9  POPC      H13B           40.4227777480       34.9946451246       64.5422006920  MEMB      3               0.0000000000
       412         9  POPC      H13C           38.8060338869       34.5811901224       65.0464828768  MEMB      3               0.0000000000
       413         9  POPC      C14            40.7883810935       33.3728424616       62.6051098910  MEMB      3               0.0000000000
       414         9  POPC      H14A           40.6321435462       32.7165368158       61.7509055754  MEMB      3               0.0000000000
       415         9  POPC      H14B           41.2602766383       34.2852596811       62.2601340888  MEMB      3               0.0000000000
       416         9  POPC      H14C           41.4682580216       32.8495350869       63.2675276471  MEMB      3               0.0000000000
       417         9  POPC      C15            38.7178059044       34.5827185536       62.3716717094  MEMB      3               0.0000000000
       418         9  POPC      H15A           37.7996438312       34.9212681778       62.8404342331  MEMB      3               0.0000000000
       419         9  POPC      H15B           38.4473317889       34.0709621252       61.4477401235  MEMB      3               0.0000000000
       420         9  POPC      H15C           39.3113893209       35.4546749823       62.1002265014  MEMB      3               0.0000000000
       421         9  POPC      C11            38.1652505505       31.6625686800       62.0099171205  MEMB      3               0.0000000000
       422         9  POPC      H11A           37.3770187328       32.3348068323       61.5987413393  MEMB      3               0.0000000000
       423         9  POPC      H11B           37.6583073938       30.6932244673       62.2353549625  MEMB      3               0.0000000000
       424         9  POPC      P              39.7741161607       30.1573174755       60.4666690139  MEMB      3               0.0000000000
       425         9  POPC      O13            38.8034163328       29.5085818545       59.5611382929  MEMB      3               0.0000000000
       426         9  POPC      O14            40.2987137643       29.3473012129       61.5948586168  MEMB      3               0.0000000000
       427         9  POPC      O12            39.2002930939       31.5152365861       61.0550044682  MEMB      3               0.0000000000
       428         9  POPC      O11            41.0294802834       30.6575806209       59.6446361466  MEMB      3               0.0000000000
       429         9  POPC      C1             41.3572831947       32.0040557386       59.3140851264  MEMB      3               0.0000000000
       430         9  POPC      HA             42.2212695945       31.9745805996       58.6124732804  MEMB      3               0.0000000000
       431         9  POPC      HB             41.6866492049       32.5668088952       60.2090449239  MEMB      3               0.0000000000
       432         9  POPC      C2             40.2224858404       32.7742468961       58.5865860518  MEMB      3               0.0000000000
       433         9  POPC      HS             39.3334921274       32.8064415385       59.2558316155  MEMB      3               0.0000000000
       434         9  POPC      O21            39.9372732841       32.0677352560       57.3706024013  MEMB      3               0.0000000000
       435         9  POPC      C21            38.7324148716       32.3150945097       56.8868237574  MEMB      3               0.0000000000
       436         9  POPC      O22            37.8655397942       32.9839641790       57.4277216132  MEMB      3               0.0000000000
       437         9  POPC      C22            38.6104384212       31.6369432591       55.5228486680  MEMB      3               0.0000000000
       438         9  POPC      H2R            38.3987063882       30.5637624413       55.6876358940  MEMB      3               0.0000000000
       439         9  POPC      H2S            39.5903610404       31.7336964211       55.0109842480  MEMB      3               0.0000000000
       440         9  POPC      C3             40.5870858678       34.2627229276       58.3035076547  MEMB      3               0.0000000000
       441         9  POPC      HX             40.8827932034       34.7225305460       59.2714228362  MEMB      3               0.0000000000
       442         9  POPC      HY             39.6691197256       34.8034461786       57.9754944101  MEMB      3               0.0000000000
       443         9  POPC      O31            41.6894968470       34.4070721740       57.3876635142  MEMB      3               0.0000000000
       444         9  POPC      C31            41.3236070768       34.5901026901       56.1105200255  MEMB      3               0.0000000000
       445         9  POPC      O32            40.1768017634       34.6247006573       55.7048994939  MEMB      3               0.0000000000
       446         9  POPC      C32            42.5560337018       34.6757579246       55.2092638644  MEMB      3               0.0000000000
       447         9  POPC      H2X            43.4770001224       34.6269410810       55.8127069611  MEMB      3               0.0000000000
       448         9  POPC      H2Y            42.5145386725       35.6432912814       54.6639769214  MEMB      3               0.0000000000
       449         9  POPC      C23            37.5530808724       32.2893669696       54.6026991273  MEMB      3               0.0000000000
       450         9  POPC      H3R            37.7725337419       33.3824715970       54.5275919021  MEMB      3               0.0000000000
       451         9  POPC      H3S            36.5316168243       32.1731880524       55.0306678972  MEMB      3               0.0000000000
       452         9  POPC      C24            37.6271706907       31.6787067826       53.1965806193  MEMB      3               0.0000000000
       453         9  POPC      H4R            38.6970430785       31.6327017903       52.8942620703  MEMB      3               0.0000000000
       454         9  POPC      H4S            37.1267200036       32.3621047840       52.4867709717  MEMB      3               0.0000000000
       455         9  POPC      C25            37.0244004964       30.2653419725       53.1171202550  MEMB      3               0.0000000000
       456         9  POPC      H5R            35.9755160129       30.2788427289       53.4891084570  MEMB      3               0.0000000000
       457         9  POPC      H5S            37.5987900278       29.6109752629       53.8132195619  MEMB      3               0.0000000000
       458         9  POPC      C26            37.0791924929       29.6438463177       51.7080206759  MEMB      3               0.0000000000
       459         9  POPC      H6R            36.8759267478       28.5579118135       51.7869410544  MEMB      3               0.0000000000
       460         9  POPC      H6S            38.1086030984       29.7474476367       51.3148615237  MEMB      3               0.0000000000
       461         9  POPC      C27            36.0827217077       30.3142399231       50.7613340389  MEMB      3               0.0000000000
       462         9  POPC      H7R            36.2879464703       31.4000451156       50.8430413963  MEMB      3               0.0000000000
       463         9  POPC      H7S            35.0651132861       30.1155611719       51.1544939322  MEMB      3               0.0000000000
       464         9  POPC      C28            36.1898404255       29.9670622109       49.2745053345  MEMB      3               0.0000000000
       465         9  POPC      H8R            35.2379709660       30.2313819950       48.7766470286  MEMB      3               0.0000000000
       466         9  POPC      H8S            36.3638832555       28.8764617524       49.1559897792  MEMB      3               0.0000000000
       467         9  POPC      C29            37.2684443185       30.7611475661       48.5928292595  MEMB      3               0.0000000000
       468         9  POPC      H91            37.5678175013       31.7054826066       49.0762031913  MEMB      3               0.0000000000
       469         9  POPC      C210           37.8705079931       30.3891635831       47.4560208537  MEMB      3               0.0000000000
       470         9  POPC      H101           38.6741480730       31.0145847087       47.0365697783  MEMB      3               0.0000000000
       471         9  POPC      C211           37.5411887961       29.1262801943       46.7089121149  MEMB      3               0.0000000000
       472         9  POPC      H11R           37.5502286933       28.2498581525       47.3928891866  MEMB      3               0.0000000000
       473         9  POPC      H11S           38.3129030125       28.9221589365       45.9351741954  MEMB      3               0.0000000000
       474         9  POPC      C212           36.1564455800       29.2330128185       46.0484932293  MEMB      3               0.0000000000
       475         9  POPC      H12R           35.3898730095       29.6068999449       46.7552442259  MEMB      3               0.0000000000
       476         9  POPC      H12S           35.8162001554       28.2243890214       45.7473107806  MEMB      3               0.0000000000
       477         9  POPC      C213           36.1403769534       30.1266295284       44.8061749864  MEMB      3               0.0000000000
       478         9  POPC      H13R           36.6225103738       31.1042657729       45.0202558940  MEMB      3               0.0000000000
       479         9  POPC      H13S           35.0706739004       30.3143531751       44.5728301610  MEMB      3               0.0000000000
       480         9  POPC      C214           36.8293216950       29.4548940513       43.6114936087  MEMB      3               0.0000000000
       481         9  POPC      H14R           36.6630247061       28.3589436660       43.6596122146  MEMB      3               0.0000000000
       482         9  POPC      H14S           37.9296491243       29.6104706713       43.6894670732  MEMB      3               0.0000000000
       483         9  POPC      C215           36.3317214929       29.9320003702       42.2400717872  MEMB      3               0.0000000000
       484         9  POPC      H15R           36.9742863594       29.4347791794       41.4892700213  MEMB      3               0.0000000000
       485         9  POPC      H15S           36.5374228012       31.0145940819       42.1580216247  MEMB      3               0.0000000000
       486         9  POPC      C216           34.8743832678       29.5433036007       41.9202247144  MEMB      3               0.0000000000
       487         9  POPC      H16R           34.3054239982       29.4337020792       42.8706327775  MEMB      3               0.0000000000
       488         9  POPC      H16S           34.8938891406       28.5253044333       41.4707905749  MEMB      3               0.0000000000
       489         9  POPC      C217           34.0900291010       30.5260860657       41.0320148423  MEMB      3               0.0000000000
       490         9  POPC      H17R           33.5439308596       31.2304942892       41.6856286082  MEMB      3               0.0000000000
       491         9  POPC      H17S           33.2721545409       29.9721466699       40.5343670743  MEMB      3               0.0000000000
       492         9  POPC      C218           34.9082483438       31.3233539655       40.0119600407  MEMB      3               0.0000000000
       493         9  POPC      H18R           35.6631729877       31.9673400777       40.5107609212  MEMB      3               0.0000000000
       494         9  POPC      H18S           34.2407248163       31.9975600406       39.4410869003  MEMB      3               0.0000000000
       495         9  POPC      H18T           35.4615818339       30.6669559237       39.3079067247  MEMB      3               0.0000000000
       496         9  POPC      C33            42.6095754523       33.5154730972       54.2027043288  MEMB      3               0.0000000000
       497         9  POPC      H3X            43.5375967368       33.6160465760       53.5929627697  MEMB      3               0.0000000000
       498         9  POPC      H3Y            41.7421130196       33.5985281744       53.5107462397  MEMB      3               0.0000000000
       499         9  POPC      C34            42.6245348021       32.1531946834       54.9155276970  MEMB      3               0.0000000000
       500         9  POPC      H4X            41.6472160386       31.9942204230       55.4223906432  MEMB      3               0.0000000000
       501         9  POPC      H4Y            43.4054671402       32.1574372442       55.7084599160  MEMB      3               0.0000000000
       502         9  POPC      C35            42.8803646221       30.9761842152       53.9754851999  MEMB      3               0.0000000000
       503         9  POPC      H5X            42.8168118862       30.0294318961       54.5576238818  MEMB      3               0.0000000000
       504         9  POPC      H5Y            43.9159106836       31.0452403013       53.5740213174  MEMB      3               0.0000000000
       505         9  POPC      C36            41.8812731577       30.9026013265       52.8199416888  MEMB      3               0.0000000000
       506         9  POPC      H6X            41.7365706700       31.8967847124       52.3421419821  MEMB      3               0.0000000000
       507         9  POPC      H6Y            40.8922261548       30.5735979863       53.2141949059  MEMB      3               0.0000000000
       508         9  POPC      C37            42.3631482069       29.9409622549       51.7366457912  MEMB      3               0.0000000000
       509         9  POPC      H7X            42.8299721382       29.0547411655       52.2054515162  MEMB      3               0.0000000000
       510         9  POPC      H7Y            43.1629012522       30.4437896308       51.1543241076  MEMB      3               0.0000000000
       511         9  POPC      C38            41.2232364843       29.4765906036       50.8307683343  MEMB      3               0.0000000000
       512         9  POPC      H8X            40.5701086602       28.7982912681       51.4291546003  MEMB      3               0.0000000000
       513         9  POPC      H8Y            41.6356671403       28.8814106796       49.9912685116  MEMB      3               0.0000000000
       514         9  POPC      C39            40.3474728822       30.6154428472       50.2852804338  MEMB      3               0.0000000000
       515         9  POPC      H9X            39.8510928655       31.1214023620       51.1404700534  MEMB      3               0.0000000000
       516         9  POPC      H9Y            39.5526228749       30.1583487663       49.6646106355  MEMB      3               0.0000000000
       517         9  POPC      C310           41.0685881972       31.6811989519       49.4524332911  MEMB      3               0.0000000000
       518         9  POPC      H10X           41.1792340008       31.3153671473       48.4086111934  MEMB      3               0.0000000000
       519         9  POPC      H10Y           42.0857677572       31.8554802372       49.8658226856  MEMB      3               0.0000000000
       520         9  POPC      C311           40.3445827660       33.0331653255       49.4502582874  MEMB      3               0.0000000000
       521         9  POPC      H11X           40.2085767212       33.3681362627       50.5059043076  MEMB      3               0.0000000000
       522         9  POPC      H11Y           39.3346036815       32.9306639735       49.0013048261  MEMB      3               0.0000000000
       523         9  POPC      C312           41.1411735739       34.1012916949       48.6958004390  MEMB      3               0.0000000000
       524         9  POPC      H12X           42.1395890624       33.7055527827       48.4091035296  MEMB      3               0.0000000000
       525         9  POPC      H12Y           41.3229430942       34.9540495496       49.3935377346  MEMB      3               0.0000000000
       526         9  POPC      C313           40.4251349093       34.6665071313       47.4594821200  MEMB      3               0.0000000000
       527         9  POPC      H13X           41.0378509106       35.5200280060       47.1145150793  MEMB      3               0.0000000000
       528         9  POPC      H13Y           39.4335041993       35.0606516020       47.7698993094  MEMB      3               0.0000000000
       529         9  POPC      C314           40.2434881658       33.7510780676       46.2382885640  MEMB      3               0.0000000000
       530         9  POPC      H14X           39.8245236073       34.3649945828       45.4069758057  MEMB      3               0.0000000000
       531         9  POPC      H14Y           39.4996443825       32.9635643891       46.4809253037  MEMB      3               0.0000000000
       532         9  POPC      C315           41.5336486225       33.0928137659       45.7391092521  MEMB      3               0.0000000000
       533         9  POPC      H15X           41.2869851771       32.4412021450       44.8696894056  MEMB      3               0.0000000000
       534         9  POPC      H15Y           41.8992070011       32.4320431885       46.5529710880  MEMB      3               0.0000000000
       535         9  POPC      C316           42.6554493684       34.0587632425       45.3387864869  MEMB      3               0.0000000000
       536         9  POPC      H16X           43.5150814766       33.4978261427       44.9112722415  MEMB      3               0.0000000000
       537         9  POPC      H16Y           43.0196707893       34.6333788918       46.2159102030  MEMB      3               0.0000000000
       538         9  POPC      H16Z           42.2954822783       34.7794496031       44.5767752565  MEMB      3               0.0000000000
       539        10  POPC      N              24.7767452880       35.1946795504       63.7746998514  MEMB      4               0.0000000000
       540        10  POPC      C12            24.0613699392       34.4092214459       62.6818732637  MEMB      4               0.0000000000
       541        10  POPC      H12A           23.4515586053       35.0836502719       62.0866232552  MEMB      4               0.0000000000
       542        10  POPC      H12B           23.3894426829       33.6979935383       63.1428743877  MEMB      4               0.0000000000
       543        10  POPC      C13            25.7330097334       34.3142266741       64.5027862141  MEMB      4               0.0000000000
       544        10  POPC      H13A           26.4489128149       33.8848731003       63.8082628507  MEMB      4               0.0000000000
       545        10  POPC      H13B           26.3408691052       34.8750068662       65.2146389826  MEMB      4               0.0000000000
       546        10  POPC      H13C           25.2622588449       33.5341322420       65.0808355186  MEMB      4               0.0000000000
       547        10  POPC      C14            25.5389646393       36.3113474279       63.1168916501  MEMB      4               0.0000000000
       548        10  POPC      H14A           24.8717353886       37.0202746882       62.6513793657  MEMB      4               0.0000000000
       549        10  POPC      H14B           26.2175019376       36.8095702140       63.7914573052  MEMB      4               0.0000000000
       550        10  POPC      H14C           26.1247253242       35.8800606352       62.2952759041  MEMB      4               0.0000000000
       551        10  POPC      C15            23.7984716800       35.7295793217       64.7695173996  MEMB      4               0.0000000000
       552        10  POPC      H15A           23.1326536060       34.9449210366       65.1051214747  MEMB      4               0.0000000000
       553        10  POPC      H15B           23.1970797564       36.5229916360       64.3550659829  MEMB      4               0.0000000000
       554        10  POPC      H15C           24.3236715468       36.1365068039       65.6312444196  MEMB      4               0.0000000000
       555        10  POPC      C11            24.9444793375       33.6518688306       61.6650498215  MEMB      4               0.0000000000
       556        10  POPC      H11A           24.2797378535       32.9522127839       61.0961854453  MEMB      4               0.0000000000
       557        10  POPC      H11B           25.6969501528       33.0150022561       62.1756256751  MEMB      4               0.0000000000
       558        10  POPC      P              25.3655670519       34.5809798883       59.2599776265  MEMB      4               0.0000000000
       559        10  POPC      O13            25.2918730523       33.1688699543       58.8082036876  MEMB      4               0.0000000000
       560        10  POPC      O14            26.3319420767       35.4966721339       58.6264495276  MEMB      4               0.0000000000
       561        10  POPC      O12            25.6251920306       34.5827483196       60.8279919618  MEMB      4               0.0000000000
       562        10  POPC      O11            23.9239517202       35.2420122624       59.2308563221  MEMB      4               0.0000000000
       563        10  POPC      C1             23.7093797319       36.5267926090       59.8344036588  MEMB      4               0.0000000000
       564        10  POPC      HA             24.6302105008       37.1607213874       59.8243694738  MEMB      4               0.0000000000
       565        10  POPC      HB             23.4035603652       36.3893569764       60.8894369170  MEMB      4               0.0000000000
       566        10  POPC      C2             22.5665822030       37.3330541732       59.1400805711  MEMB      4               0.0000000000
       567        10  POPC      HS             21.9026442442       37.7664065434       59.9261101639  MEMB      4               0.0000000000
       568        10  POPC      O21            21.8283372651       36.4725236510       58.2420755665  MEMB      4               0.0000000000
       569        10  POPC      C21            21.0073656104       35.6654998889       58.8946037447  MEMB      4               0.0000000000
       570        10  POPC      O22            20.6582741142       35.8141115849       60.0537454191  MEMB      4               0.0000000000
       571        10  POPC      C22            20.4208818137       34.5961199985       57.9743848454  MEMB      4               0.0000000000
       572        10  POPC      H2R            20.0274474764       35.1032397318       57.0717744313  MEMB      4               0.0000000000
       573        10  POPC      H2S            19.5636923719       34.1278109732       58.4987832359  MEMB      4               0.0000000000
       574        10  POPC      C3             23.1465568613       38.5600588033       58.3770511732  MEMB      4               0.0000000000
       575        10  POPC      HX             23.4472667746       39.3153895598       59.1364370908  MEMB      4               0.0000000000
       576        10  POPC      HY             22.3615951750       39.0508551120       57.7547224995  MEMB      4               0.0000000000
       577        10  POPC      O31            24.3254511178       38.1920520952       57.6362451464  MEMB      4               0.0000000000
       578        10  POPC      C31            24.0455005858       37.6733287810       56.4430387323  MEMB      4               0.0000000000
       579        10  POPC      O32            22.9851399269       37.7995314255       55.8561913871  MEMB      4               0.0000000000
       580        10  POPC      C32            25.2910864216       37.0096991613       55.8634675295  MEMB      4               0.0000000000
       581        10  POPC      H2X            26.1096423559       37.0607201708       56.6123026426  MEMB      4               0.0000000000
       582        10  POPC      H2Y            25.5785126727       37.5911715484       54.9669465822  MEMB      4               0.0000000000
       583        10  POPC      C23            21.4289599494       33.5245647733       57.5359971610  MEMB      4               0.0000000000
       584        10  POPC      H3R            21.5425842433       32.7451819566       58.3211949660  MEMB      4               0.0000000000
       585        10  POPC      H3S            22.4332139543       33.9939133031       57.3905760763  MEMB      4               0.0000000000
       586        10  POPC      C24            21.0096178372       32.8977848142       56.2008797043  MEMB      4               0.0000000000
       587        10  POPC      H4R            20.1589810964       33.4681365359       55.7658330457  MEMB      4               0.0000000000
       588        10  POPC      H4S            20.6533334856       31.8596274057       56.3745836029  MEMB      4               0.0000000000
       589        10  POPC      C25            22.1455788835       32.9275580825       55.1702681380  MEMB      4               0.0000000000
       590        10  POPC      H5R            22.9498804113       32.2535749608       55.5451183642  MEMB      4               0.0000000000
       591        10  POPC      H5S            22.5697562302       33.9523905082       55.1141541839  MEMB      4               0.0000000000
       592        10  POPC      C26            21.6943367721       32.4579447558       53.7771050335  MEMB      4               0.0000000000
       593        10  POPC      H6R            20.8506397182       31.7484896841       53.9078704715  MEMB      4               0.0000000000
       594        10  POPC      H6S            22.5381336906       31.9194106942       53.2926017950  MEMB      4               0.0000000000
       595        10  POPC      C27            21.2410093826       33.5512014463       52.8037118091  MEMB      4               0.0000000000
       596        10  POPC      H7R            20.4429145168       34.1681894743       53.2714698911  MEMB      4               0.0000000000
       597        10  POPC      H7S            20.7998021779       33.0383043264       51.9174792292  MEMB      4               0.0000000000
       598        10  POPC      C28            22.4059508122       34.4446196812       52.3483388848  MEMB      4               0.0000000000
       599        10  POPC      H8R            23.2526296891       33.7958363639       52.0312859729  MEMB      4               0.0000000000
       600        10  POPC      H8S            22.7486176770       35.0248781434       53.2326290197  MEMB      4               0.0000000000
       601        10  POPC      C29            21.9977019707       35.3495547499       51.2173486162  MEMB      4               0.0000000000
       602        10  POPC      H91            21.3619543088       34.8831501314       50.4485632422  MEMB      4               0.0000000000
       603        10  POPC      C210           22.3454728550       36.6389368582       51.0771718470  MEMB      4               0.0000000000
       604        10  POPC      H101           21.9790366626       37.1770942218       50.1938350464  MEMB      4               0.0000000000
       605        10  POPC      C211           23.2115044642       37.4667387209       51.9987030082  MEMB      4               0.0000000000
       606        10  POPC      H11R           23.3000068860       37.0205567579       53.0141606008  MEMB      4               0.0000000000
       607        10  POPC      H11S           22.7395625584       38.4630827242       52.1491159093  MEMB      4               0.0000000000
       608        10  POPC      C212           24.6286984283       37.6690597100       51.4191645752  MEMB      4               0.0000000000
       609        10  POPC      H12R           25.1390455840       36.6853699117       51.3205498593  MEMB      4               0.0000000000
       610        10  POPC      H12S           25.2174681923       38.2923823163       52.1282185216  MEMB      4               0.0000000000
       611        10  POPC      C213           24.5822510821       38.3576493767       50.0499622212  MEMB      4               0.0000000000
       612        10  POPC      H13R           23.9423434882       39.2643581783       50.1506510716  MEMB      4               0.0000000000
       613        10  POPC      H13S           24.0965909687       37.6675264898       49.3245575505  MEMB      4               0.0000000000
       614        10  POPC      C214           25.9328810281       38.7877248759       49.4684204740  MEMB      4               0.0000000000
       615        10  POPC      H14R           26.5247668561       37.8878213907       49.1841589010  MEMB      4               0.0000000000
       616        10  POPC      H14S           26.5035012908       39.3389077942       50.2483409620  MEMB      4               0.0000000000
       617        10  POPC      C215           25.7317002082       39.6995097902       48.2448916546  MEMB      4               0.0000000000
       618        10  POPC      H15R           26.7023093030       40.0940359436       47.8804466666  MEMB      4               0.0000000000
       619        10  POPC      H15S           25.1396421596       40.5865163989       48.5650742038  MEMB      4               0.0000000000
       620        10  POPC      C216           25.0071795849       39.0037066268       47.0805803872  MEMB      4               0.0000000000
       621        10  POPC      H16R           24.0265012188       38.6140650614       47.4153405924  MEMB      4               0.0000000000
       622        10  POPC      H16S           25.5971896262       38.1265098485       46.7338630552  MEMB      4               0.0000000000
       623        10  POPC      C217           24.7432462753       39.9429054206       45.9029479032  MEMB      4               0.0000000000
       624        10  POPC      H17R           25.7062313807       40.0972003922       45.3700496160  MEMB      4               0.0000000000
       625        10  POPC      H17S           24.3949302103       40.9262004380       46.2958945708  MEMB      4               0.0000000000
       626        10  POPC      C218           23.7044046188       39.4132059555       44.9167147758  MEMB      4               0.0000000000
       627        10  POPC      H18R           22.7485908363       39.2045476039       45.4384869817  MEMB      4               0.0000000000
       628        10  POPC      H18S           24.0581521213       38.4732610294       44.4417189449  MEMB      4               0.0000000000
       629        10  POPC      H18T           23.4979424539       40.1586722910       44.1190530068  MEMB      4               0.0000000000
       630        10  POPC      C33            25.0504336140       35.5314033690       55.4787370152  MEMB      4               0.0000000000
       631        10  POPC      H3X            24.2304058659       35.4580252272       54.7336958360  MEMB      4               0.0000000000
       632        10  POPC      H3Y            24.7278557628       34.9658693704       56.3823785917  MEMB      4               0.0000000000
       633        10  POPC      C34            26.3069918938       34.8565465427       54.9073001030  MEMB      4               0.0000000000
       634        10  POPC      H4X            26.1836347917       33.7511644974       54.9709670989  MEMB      4               0.0000000000
       635        10  POPC      H4Y            27.1887887063       35.1222642352       55.5327412808  MEMB      4               0.0000000000
       636        10  POPC      C35            26.5417712553       35.2385422032       53.4425256510  MEMB      4               0.0000000000
       637        10  POPC      H5X            26.6378436327       36.3426831791       53.3592956537  MEMB      4               0.0000000000
       638        10  POPC      H5Y            25.6448783267       34.9295283901       52.8628534747  MEMB      4               0.0000000000
       639        10  POPC      C36            27.7960158524       34.6011655997       52.8292783559  MEMB      4               0.0000000000
       640        10  POPC      H6X            27.8094129372       33.4994555503       52.9853419411  MEMB      4               0.0000000000
       641        10  POPC      H6Y            28.6977987420       34.9953064597       53.3537324988  MEMB      4               0.0000000000
       642        10  POPC      C37            27.9331197925       34.8832738101       51.3215756171  MEMB      4               0.0000000000
       643        10  POPC      H7X            28.9704364307       34.6076355503       51.0122030519  MEMB      4               0.0000000000
       644        10  POPC      H7Y            27.8076319523       35.9702595771       51.1324513004  MEMB      4               0.0000000000
       645        10  POPC      C38            26.9467875287       34.0717019999       50.4647741475  MEMB      4               0.0000000000
       646        10  POPC      H8X            25.9102099090       34.2724620499       50.8057889579  MEMB      4               0.0000000000
       647        10  POPC      H8Y            27.1668952426       32.9935591914       50.6322479691  MEMB      4               0.0000000000
       648        10  POPC      C39            27.0538718393       34.3773226476       48.9643872455  MEMB      4               0.0000000000
       649        10  POPC      H9X            28.1254705134       34.2986328409       48.6615104432  MEMB      4               0.0000000000
       650        10  POPC      H9Y            26.7476491413       35.4308889578       48.7884091026  MEMB      4               0.0000000000
       651        10  POPC      C310           26.2201465466       33.4377461803       48.0743195880  MEMB      4               0.0000000000
       652        10  POPC      H10X           26.6262473394       32.4055006009       48.1698720585  MEMB      4               0.0000000000
       653        10  POPC      H10Y           26.3713756466       33.7515569589       47.0189848501  MEMB      4               0.0000000000
       654        10  POPC      C311           24.7209543880       33.4191895860       48.4231265920  MEMB      4               0.0000000000
       655        10  POPC      H11X           24.3199465085       34.4559777074       48.4621194374  MEMB      4               0.0000000000
       656        10  POPC      H11Y           24.6200622415       32.9893178824       49.4466467520  MEMB      4               0.0000000000
       657        10  POPC      C312           23.8631350978       32.5670540196       47.4696970581  MEMB      4               0.0000000000
       658        10  POPC      H12X           23.0260397793       32.1296814233       48.0642414921  MEMB      4               0.0000000000
       659        10  POPC      H12Y           24.4643595745       31.7180772529       47.0769199996  MEMB      4               0.0000000000
       660        10  POPC      C313           23.2234113642       33.3527434012       46.3089478534  MEMB      4               0.0000000000
       661        10  POPC      H13X           22.5918270338       34.1674980512       46.7276468879  MEMB      4               0.0000000000
       662        10  POPC      H13Y           22.5519707385       32.6619412221       45.7486764230  MEMB      4               0.0000000000
       663        10  POPC      C314           24.2273407660       33.9509931607       45.3118159374  MEMB      4               0.0000000000
       664        10  POPC      H14X           24.8614084857       33.1313907441       44.9044602187  MEMB      4               0.0000000000
       665        10  POPC      H14Y           24.8908236189       34.6732511301       45.8364035760  MEMB      4               0.0000000000
       666        10  POPC      C315           23.5539556507       34.6982318817       44.1520148153  MEMB      4               0.0000000000
       667        10  POPC      H15X           23.0397529989       35.5965366105       44.5643908278  MEMB      4               0.0000000000
       668        10  POPC      H15Y           22.7655919869       34.0480730015       43.7108901344  MEMB      4               0.0000000000
       669        10  POPC      C316           24.5345736601       35.1256416594       43.0511938569  MEMB      4               0.0000000000
       670        10  POPC      H16X           24.4335751531       36.2095606029       42.8319572122  MEMB      4               0.0000000000
       671        10  POPC      H16Y           24.3353233671       34.5624182519       42.1141428944  MEMB      4               0.0000000000
       672        10  POPC      H16Z           25.5852888489       34.9234533167       43.3530288559  MEMB      4               0.0000000000
       673        11  POPC      N              36.0707625087       21.1233454711       62.8115436049  MEMB      5               0.0000000000
       674        11  POPC      C12            35.6899817528       22.5453193845       63.2388291980  MEMB      5               0.0000000000
       675        11  POPC      H12A           36.4034983406       22.8742500743       63.9970609966  MEMB      5               0.0000000000
       676        11  POPC      H12B           34.7020701831       22.5460139487       63.6702903996  MEMB      5               0.0000000000
       677        11  POPC      C13            37.5218531688       21.1594054961       62.4025892169  MEMB      5               0.0000000000
       678        11  POPC      H13A           37.8614153423       20.2669922058       61.8934535490  MEMB      5               0.0000000000
       679        11  POPC      H13B           37.6862343216       22.0008153901       61.7178776573  MEMB      5               0.0000000000
       680        11  POPC      H13C           38.1696135761       21.3373570103       63.2508789943  MEMB      5               0.0000000000
       681        11  POPC      C14            35.8979132870       20.1416161099       63.9297994984  MEMB      5               0.0000000000
       682        11  POPC      H14A           36.4418709248       20.4485553937       64.8212030918  MEMB      5               0.0000000000
       683        11  POPC      H14B           34.8659959428       20.0290853303       64.2413242619  MEMB      5               0.0000000000
       684        11  POPC      H14C           36.3132754538       19.1793036151       63.6523487879  MEMB      5               0.0000000000
       685        11  POPC      C15            35.3032878303       20.7255205422       61.5985279550  MEMB      5               0.0000000000
       686        11  POPC      H15A           34.2555164371       20.9641851827       61.7001082715  MEMB      5               0.0000000000
       687        11  POPC      H15B           35.4499684300       19.6804342178       61.3601439979  MEMB      5               0.0000000000
       688        11  POPC      H15C           35.6852312222       21.3219605714       60.7586628993  MEMB      5               0.0000000000
       689        11  POPC      C11            35.7309909727       23.6699426715       62.1700268390  MEMB      5               0.0000000000
       690        11  POPC      H11A           35.0211825232       24.4811713584       62.4569911392  MEMB      5               0.0000000000
       691        11  POPC      H11B           35.3808069956       23.2997327096       61.1787908855  MEMB      5               0.0000000000
       692        11  POPC      P              37.7695220772       24.5224081428       60.7628445922  MEMB      5               0.0000000000
       693        11  POPC      O13            37.7961570472       23.2314568590       60.0475475072  MEMB      5               0.0000000000
       694        11  POPC      O14            39.0461599051       25.1836201876       61.0828860225  MEMB      5               0.0000000000
       695        11  POPC      O12            37.0458651570       24.2133565854       62.1353040410  MEMB      5               0.0000000000
       696        11  POPC      O11            36.7837196488       25.5387866780       60.0769280761  MEMB      5               0.0000000000
       697        11  POPC      C1             37.1757789861       26.2142481270       58.8732431757  MEMB      5               0.0000000000
       698        11  POPC      HA             38.2427178303       26.5482056020       58.8815017433  MEMB      5               0.0000000000
       699        11  POPC      HB             36.5687497181       27.1434081151       58.8061194848  MEMB      5               0.0000000000
       700        11  POPC      C2             36.8804484393       25.3850985572       57.5860917457  MEMB      5               0.0000000000
       701        11  POPC      HS             35.8984031454       24.8820140503       57.7382867682  MEMB      5               0.0000000000
       702        11  POPC      O21            37.9289111426       24.4270289619       57.3609029438  MEMB      5               0.0000000000
       703        11  POPC      C21            37.5988390999       23.3496426382       56.6696378853  MEMB      5               0.0000000000
       704        11  POPC      O22            36.4751433860       23.0027518316       56.3420363368  MEMB      5               0.0000000000
       705        11  POPC      C22            38.8774341360       22.6304264546       56.2326950208  MEMB      5               0.0000000000
       706        11  POPC      H2R            38.5914549300       21.7496983360       55.6237348990  MEMB      5               0.0000000000
       707        11  POPC      H2S            39.3771935017       22.2881789962       57.1641208117  MEMB      5               0.0000000000
       708        11  POPC      C3             36.7650362710       26.3482159692       56.3686917682  MEMB      5               0.0000000000
       709        11  POPC      HX             37.6048230043       27.0768238957       56.4201095050  MEMB      5               0.0000000000
       710        11  POPC      HY             35.8058642050       26.9040114445       56.4961368041  MEMB      5               0.0000000000
       711        11  POPC      O31            36.8178776635       25.6435071529       55.1112885543  MEMB      5               0.0000000000
       712        11  POPC      C31            36.3951422990       26.3590480877       54.0876237915  MEMB      5               0.0000000000
       713        11  POPC      O32            36.0639641910       27.5287839945       54.1315252880  MEMB      5               0.0000000000
       714        11  POPC      C32            36.3967508422       25.5178846404       52.8145528868  MEMB      5               0.0000000000
       715        11  POPC      H2X            36.2819780585       24.4474558182       53.0857328850  MEMB      5               0.0000000000
       716        11  POPC      H2Y            37.3927668034       25.6896415794       52.3590758166  MEMB      5               0.0000000000
       717        11  POPC      C23            39.8321860203       23.5533894572       55.4337791083  MEMB      5               0.0000000000
       718        11  POPC      H3R            40.8487475698       23.1067027510       55.3745465697  MEMB      5               0.0000000000
       719        11  POPC      H3S            39.9574802954       24.4966052390       56.0121634092  MEMB      5               0.0000000000
       720        11  POPC      C24            39.3313484442       23.8963150919       54.0191407783  MEMB      5               0.0000000000
       721        11  POPC      H4R            39.5274139015       24.9780018243       53.8525693632  MEMB      5               0.0000000000
       722        11  POPC      H4S            38.2328744299       23.7576731871       53.9527547080  MEMB      5               0.0000000000
       723        11  POPC      C25            40.0203032213       23.1128110319       52.8915492578  MEMB      5               0.0000000000
       724        11  POPC      H5R            39.5810683688       22.0968754498       52.8133291807  MEMB      5               0.0000000000
       725        11  POPC      H5S            41.0897361678       22.9758353794       53.1603572511  MEMB      5               0.0000000000
       726        11  POPC      C26            39.9704031389       23.8324261105       51.5314761871  MEMB      5               0.0000000000
       727        11  POPC      H6R            40.7636530836       23.4151000252       50.8706327413  MEMB      5               0.0000000000
       728        11  POPC      H6S            40.1845586158       24.9119990649       51.6681685333  MEMB      5               0.0000000000
       729        11  POPC      C27            38.6274470225       23.6973979748       50.8112705086  MEMB      5               0.0000000000
       730        11  POPC      H7R            37.8116086079       23.9544454105       51.4988680424  MEMB      5               0.0000000000
       731        11  POPC      H7S            38.4698647473       22.6265147255       50.6004426597  MEMB      5               0.0000000000
       732        11  POPC      C28            38.5292368948       24.4996180769       49.4948211014  MEMB      5               0.0000000000
       733        11  POPC      H8R            37.6011697594       24.1769781832       48.9693928987  MEMB      5               0.0000000000
       734        11  POPC      H8S            39.3550425578       24.1600712946       48.8333192705  MEMB      5               0.0000000000
       735        11  POPC      C29            38.5341211710       26.0046899009       49.6649343148  MEMB      5               0.0000000000
       736        11  POPC      H91            37.6930606202       26.4171121230       50.2351367666  MEMB      5               0.0000000000
       737        11  POPC      C210           39.4862106953       26.8578064013       49.2542193691  MEMB      5               0.0000000000
       738        11  POPC      H101           39.3392072844       27.9392675056       49.3977836984  MEMB      5               0.0000000000
       739        11  POPC      C211           40.7502902210       26.4686675691       48.5383170590  MEMB      5               0.0000000000
       740        11  POPC      H11R           41.0227755712       25.4180675937       48.7819437462  MEMB      5               0.0000000000
       741        11  POPC      H11S           41.6100454644       27.0791313437       48.8863728238  MEMB      5               0.0000000000
       742        11  POPC      C212           40.6357063916       26.5867778342       47.0125583282  MEMB      5               0.0000000000
       743        11  POPC      H12R           40.8099162127       27.6322124887       46.6887738190  MEMB      5               0.0000000000
       744        11  POPC      H12S           39.6064767102       26.3279721735       46.6760856291  MEMB      5               0.0000000000
       745        11  POPC      C213           41.6322964908       25.6468191579       46.3240826010  MEMB      5               0.0000000000
       746        11  POPC      H13R           41.6229872517       24.6611030241       46.8454331687  MEMB      5               0.0000000000
       747        11  POPC      H13S           42.6587641527       26.0616329149       46.4136995032  MEMB      5               0.0000000000
       748        11  POPC      C214           41.2912701532       25.3922722215       44.8577650826  MEMB      5               0.0000000000
       749        11  POPC      H14R           42.1694335830       24.9455148633       44.3534257512  MEMB      5               0.0000000000
       750        11  POPC      H14S           41.0672531029       26.3543830579       44.3475985566  MEMB      5               0.0000000000
       751        11  POPC      C215           40.1265753896       24.4115205630       44.7087169512  MEMB      5               0.0000000000
       752        11  POPC      H15R           39.4163948312       24.7987751065       43.9475120147  MEMB      5               0.0000000000
       753        11  POPC      H15S           39.5762151472       24.3421070538       45.6725015226  MEMB      5               0.0000000000
       754        11  POPC      C216           40.5636557160       23.0000074558       44.2920107808  MEMB      5               0.0000000000
       755        11  POPC      H16R           40.9450295555       22.4790060075       45.1857398446  MEMB      5               0.0000000000
       756        11  POPC      H16S           41.4208655313       23.0485056773       43.5919411961  MEMB      5               0.0000000000
       757        11  POPC      C217           39.4127448099       22.2543541110       43.6056471757  MEMB      5               0.0000000000
       758        11  POPC      H17R           39.4118062192       22.5463231835       42.5308340017  MEMB      5               0.0000000000
       759        11  POPC      H17S           38.4646647423       22.6258868353       44.0418189864  MEMB      5               0.0000000000
       760        11  POPC      C218           39.3982524023       20.7324512220       43.7253814937  MEMB      5               0.0000000000
       761        11  POPC      H18R           40.3434961174       20.2870796884       43.3562210250  MEMB      5               0.0000000000
       762        11  POPC      H18S           38.5552479936       20.3276051503       43.1270228436  MEMB      5               0.0000000000
       763        11  POPC      H18T           39.2473354030       20.4213766287       44.7789171720  MEMB      5               0.0000000000
       764        11  POPC      C33            35.2886107304       25.9598511133       51.8366211940  MEMB      5               0.0000000000
       765        11  POPC      H3X            35.4730719672       27.0337393633       51.6220356146  MEMB      5               0.0000000000
       766        11  POPC      H3Y            34.3254784186       25.8764686808       52.3770051059  MEMB      5               0.0000000000
       767        11  POPC      C34            35.1531472793       25.1537580470       50.5292212610  MEMB      5               0.0000000000
       768        11  POPC      H4X            36.0138210337       25.3220529148       49.8584503809  MEMB      5               0.0000000000
       769        11  POPC      H4Y            34.2593155456       25.4830020343       49.9618189681  MEMB      5               0.0000000000
       770        11  POPC      C35            34.9313800487       23.6466535223       50.7028859145  MEMB      5               0.0000000000
       771        11  POPC      H5X            34.3777410742       23.4657215538       51.6525101217  MEMB      5               0.0000000000
       772        11  POPC      H5Y            35.9078549037       23.1211134713       50.7653932242  MEMB      5               0.0000000000
       773        11  POPC      C36            34.1100749962       23.0785479041       49.5363895110  MEMB      5               0.0000000000
       774        11  POPC      H6X            34.6467408408       23.2396985563       48.5789973494  MEMB      5               0.0000000000
       775        11  POPC      H6Y            33.1663421003       23.6640054876       49.4799321899  MEMB      5               0.0000000000
       776        11  POPC      C37            33.6830342672       21.6107799720       49.6875586886  MEMB      5               0.0000000000
       777        11  POPC      H7X            32.7435588241       21.4712764405       49.1046971395  MEMB      5               0.0000000000
       778        11  POPC      H7Y            33.4404363920       21.4071004518       50.7539287666  MEMB      5               0.0000000000
       779        11  POPC      C38            34.6896652513       20.5608374482       49.1907807825  MEMB      5               0.0000000000
       780        11  POPC      H8X            34.1718967940       19.5803465108       49.1201165456  MEMB      5               0.0000000000
       781        11  POPC      H8Y            35.4820878005       20.4474673722       49.9550258251  MEMB      5               0.0000000000
       782        11  POPC      C39            35.3184888513       20.8175870033       47.8146988511  MEMB      5               0.0000000000
       783        11  POPC      H9X            35.9209341825       19.9199503317       47.5380624425  MEMB      5               0.0000000000
       784        11  POPC      H9Y            36.0262500124       21.6732725831       47.8687019752  MEMB      5               0.0000000000
       785        11  POPC      C310           34.2806847984       21.0484491351       46.7093269931  MEMB      5               0.0000000000
       786        11  POPC      H10X           33.7719733564       22.0264321644       46.8470808193  MEMB      5               0.0000000000
       787        11  POPC      H10Y           33.4971079016       20.2592453615       46.7787564668  MEMB      5               0.0000000000
       788        11  POPC      C311           34.9068026067       20.9847445280       45.3134673881  MEMB      5               0.0000000000
       789        11  POPC      H11X           34.1194636385       21.1079704006       44.5383274265  MEMB      5               0.0000000000
       790        11  POPC      H11Y           35.3527268666       19.9865745776       45.2000152656  MEMB      5               0.0000000000
       791        11  POPC      C312           36.0536939455       21.9583002323       45.0630454227  MEMB      5               0.0000000000
       792        11  POPC      H12X           36.3606884641       21.8578817122       43.9955916161  MEMB      5               0.0000000000
       793        11  POPC      H12Y           36.9332110990       21.6883679859       45.6898044603  MEMB      5               0.0000000000
       794        11  POPC      C313           35.6273168050       23.3929166396       45.3372041784  MEMB      5               0.0000000000
       795        11  POPC      H13X           35.4090866546       23.5313981088       46.4189357708  MEMB      5               0.0000000000
       796        11  POPC      H13Y           34.6876786219       23.5638151577       44.7753112136  MEMB      5               0.0000000000
       797        11  POPC      C314           36.6824713374       24.4005308185       44.9078960695  MEMB      5               0.0000000000
       798        11  POPC      H14X           37.0395150544       24.1606657660       43.8814087712  MEMB      5               0.0000000000
       799        11  POPC      H14Y           37.5369677922       24.3082971745       45.6122590629  MEMB      5               0.0000000000
       800        11  POPC      C315           36.1732642802       25.8355477751       44.9138470392  MEMB      5               0.0000000000
       801        11  POPC      H15X           37.0425875201       26.5074828404       44.7282724428  MEMB      5               0.0000000000
       802        11  POPC      H15Y           35.7902343182       26.0550476866       45.9343211904  MEMB      5               0.0000000000
       803        11  POPC      C316           35.0880664966       26.1067741726       43.8656700727  MEMB      5               0.0000000000
       804        11  POPC      H16X           35.4453118112       25.8325797495       42.8519630019  MEMB      5               0.0000000000
       805        11  POPC      H16Y           34.7914650270       27.1746124282       43.8668477519  MEMB      5               0.0000000000
       806        11  POPC      H16Z           34.1777697573       25.5108891481       44.0826141630  MEMB      5               0.0000000000
       807        12  POPS      N              40.8994409243       40.8489914662       63.9361656139  MEMB      6               0.0000000000
       808        12  POPS      HN1            40.7902378603       40.0898994376       63.2192700357  MEMB      6               0.0000000000
       809        12  POPS      HN2            41.8603863422       40.7962075840       64.3368869474  MEMB      6               0.0000000000
       810        12  POPS      HN3            40.1443425661       40.7627640443       64.6380028543  MEMB      6               0.0000000000
       811        12  POPS      C12            40.7015830085       42.0098031991       63.0398914390  MEMB      6               0.0000000000
       812        12  POPS      H12A           41.3745228960       42.8013226837       63.3347501016  MEMB      6               0.0000000000
       813        12  POPS      C13            39.2871524663       42.6068727677       63.0709551461  MEMB      6               0.0000000000
       814        12  POPS      O13A           38.4563290962       42.2010697084       63.9420225463  MEMB      6               0.0000000000
       815        12  POPS      O13B           39.0279213211       43.4758376397       62.2029087528  MEMB      6               0.0000000000
       816        12  POPS      C11            41.0039806854       41.4464602229       61.6212873928  MEMB      6               0.0000000000
       817        12  POPS      H11A           42.1122432634       41.5186380890       61.4848992452  MEMB      6               0.0000000000
       818        12  POPS      H11B           40.5442916414       42.0978546502       60.8434445660  MEMB      6               0.0000000000
       819        12  POPS      P              41.2603353748       39.0342478971       60.6147046801  MEMB      6               0.0000000000
       820        12  POPS      O13            40.7144183326       37.6795821798       60.8406758215  MEMB      6               0.0000000000
       821        12  POPS      O14            42.6876156828       39.2490131302       60.8226150554  MEMB      6               0.0000000000
       822        12  POPS      O12            40.5090035747       40.0909603457       61.5164822227  MEMB      6               0.0000000000
       823        12  POPS      O11            40.8626738042       39.4838191520       59.2020724587  MEMB      6               0.0000000000
       824        12  POPS      C1             41.7443106869       39.3343104711       58.1032240609  MEMB      6               0.0000000000
       825        12  POPS      HA             42.0859705504       38.2866563545       57.9821284861  MEMB      6               0.0000000000
       826        12  POPS      HB             42.6378002166       39.9864288483       58.2165127507  MEMB      6               0.0000000000
       827        12  POPS      C2             40.8864720735       39.6872566643       56.8936799564  MEMB      6               0.0000000000
       828        12  POPS      HS             41.4768759275       39.6404267531       55.9512960225  MEMB      6               0.0000000000
       829        12  POPS      O21            40.3466741023       41.0104597358       57.1462950865  MEMB      6               0.0000000000
       830        12  POPS      C21            41.3218370097       41.9226087031       57.1033682872  MEMB      6               0.0000000000
       831        12  POPS      O22            42.3859744097       41.7688436398       56.5330279182  MEMB      6               0.0000000000
       832        12  POPS      C22            40.9587166837       43.2291064309       57.8097061744  MEMB      6               0.0000000000
       833        12  POPS      H2R            41.8371652836       43.9039966748       57.7230405135  MEMB      6               0.0000000000
       834        12  POPS      H2S            40.7960761683       43.0097893768       58.8862948264  MEMB      6               0.0000000000
       835        12  POPS      C3             39.7982728261       38.5682118314       56.8389661383  MEMB      6               0.0000000000
       836        12  POPS      HX             39.1796436606       38.6444651908       57.7557967237  MEMB      6               0.0000000000
       837        12  POPS      HY             40.3150844681       37.5844366726       56.9338268444  MEMB      6               0.0000000000
       838        12  POPS      O31            38.9454728159       38.6226425266       55.6838828891  MEMB      6               0.0000000000
       839        12  POPS      C31            39.3362210372       37.8609039749       54.6654325498  MEMB      6               0.0000000000
       840        12  POPS      O32            40.3589935231       37.2080791850       54.6113171803  MEMB      6               0.0000000000
       841        12  POPS      C32            38.3291792480       38.0071621668       53.5399687499  MEMB      6               0.0000000000
       842        12  POPS      H2X            37.5680696164       38.7675625924       53.8176079552  MEMB      6               0.0000000000
       843        12  POPS      H2Y            37.8133197597       37.0368744655       53.3983695957  MEMB      6               0.0000000000
       844        12  POPS      C23            39.7128100698       43.9568255885       57.2590187221  MEMB      6               0.0000000000
       845        12  POPS      H3R            39.7153724285       45.0026726671       57.6364811811  MEMB      6               0.0000000000
       846        12  POPS      H3S            38.8230353161       43.4564472442       57.7051367097  MEMB      6               0.0000000000
       847        12  POPS      C24            39.5292784369       43.9264477030       55.7373788587  MEMB      6               0.0000000000
       848        12  POPS      H4R            40.4697433110       44.1384395020       55.1874021307  MEMB      6               0.0000000000
       849        12  POPS      H4S            38.8136180085       44.7308332905       55.4660499917  MEMB      6               0.0000000000
       850        12  POPS      C25            38.9145392588       42.5830435047       55.3162957797  MEMB      6               0.0000000000
       851        12  POPS      H5R            38.3406117831       42.1551182282       56.1672925105  MEMB      6               0.0000000000
       852        12  POPS      H5S            39.7310992496       41.8668803239       55.0810499485  MEMB      6               0.0000000000
       853        12  POPS      C26            38.0125729091       42.6201452055       54.0995570701  MEMB      6               0.0000000000
       854        12  POPS      H6R            37.1495516343       43.3015276646       54.2430636688  MEMB      6               0.0000000000
       855        12  POPS      H6S            37.6106445919       41.5908160297       53.9438897937  MEMB      6               0.0000000000
       856        12  POPS      C27            38.8419605203       43.0177607132       52.8925644774  MEMB      6               0.0000000000
       857        12  POPS      H7R            39.8132519225       42.4753018427       52.9510777522  MEMB      6               0.0000000000
       858        12  POPS      H7S            39.0791256349       44.0993701000       52.9459693121  MEMB      6               0.0000000000
       859        12  POPS      C28            38.1444000371       42.6611886006       51.5904619780  MEMB      6               0.0000000000
       860        12  POPS      H8R            37.1763421492       43.2016568339       51.5209048217  MEMB      6               0.0000000000
       861        12  POPS      H8S            37.9168689149       41.5707854947       51.5852008469  MEMB      6               0.0000000000
       862        12  POPS      C29            39.0776752889       43.0251554351       50.4786557130  MEMB      6               0.0000000000
       863        12  POPS      H91            39.9256153004       43.6759260049       50.7447376026  MEMB      6               0.0000000000
       864        12  POPS      C210           38.9309876670       42.6398288004       49.2155453488  MEMB      6               0.0000000000
       865        12  POPS      H101           39.6923711258       42.9551887431       48.4978178017  MEMB      6               0.0000000000
       866        12  POPS      C211           37.8185755105       41.7892825985       48.6735859203  MEMB      6               0.0000000000
       867        12  POPS      H11R           37.3119709786       42.3822631737       47.8838201436  MEMB      6               0.0000000000
       868        12  POPS      H11S           37.0492044439       41.5755698325       49.4431880226  MEMB      6               0.0000000000
       869        12  POPS      C212           38.2577711382       40.4603221315       48.0353646366  MEMB      6               0.0000000000
       870        12  POPS      H12R           39.1698512307       40.5970331547       47.4218331543  MEMB      6               0.0000000000
       871        12  POPS      H12S           37.4523023735       40.1450846825       47.3476083625  MEMB      6               0.0000000000
       872        12  POPS      C213           38.4635421951       39.3070022807       49.0173128516  MEMB      6               0.0000000000
       873        12  POPS      H13R           37.6026622055       39.3098917251       49.7222929931  MEMB      6               0.0000000000
       874        12  POPS      H13S           39.4013772355       39.4894730921       49.5863366563  MEMB      6               0.0000000000
       875        12  POPS      C214           38.5319320799       37.9316996399       48.3361455473  MEMB      6               0.0000000000
       876        12  POPS      H14R           37.5030368877       37.6496410733       48.0203370111  MEMB      6               0.0000000000
       877        12  POPS      H14S           38.8827514566       37.1649777753       49.0634047478  MEMB      6               0.0000000000
       878        12  POPS      C215           39.4166123223       37.8908622487       47.0832558257  MEMB      6               0.0000000000
       879        12  POPS      H15R           39.0654848544       38.6466532787       46.3508001209  MEMB      6               0.0000000000
       880        12  POPS      H15S           39.2813422220       36.8974798478       46.6055692241  MEMB      6               0.0000000000
       881        12  POPS      C216           40.9136991700       38.1328911528       47.3365232484  MEMB      6               0.0000000000
       882        12  POPS      H16R           41.2568709956       37.4557119441       48.1515687612  MEMB      6               0.0000000000
       883        12  POPS      H16S           41.0678014813       39.1726185386       47.6974858530  MEMB      6               0.0000000000
       884        12  POPS      C217           41.7956557284       37.8801015042       46.0973079155  MEMB      6               0.0000000000
       885        12  POPS      H17R           42.2602207118       36.8720210345       46.1756032078  MEMB      6               0.0000000000
       886        12  POPS      H17S           42.6422325346       38.6028838027       46.1050624762  MEMB      6               0.0000000000
       887        12  POPS      C218           41.0777671186       37.9633470109       44.7469301885  MEMB      6               0.0000000000
       888        12  POPS      H18R           41.7570706783       37.5840208217       43.9554685376  MEMB      6               0.0000000000
       889        12  POPS      H18S           40.7949890899       39.0136283183       44.5159972610  MEMB      6               0.0000000000
       890        12  POPS      H18T           40.1705292025       37.3271921252       44.7021906518  MEMB      6               0.0000000000
       891        12  POPS      C33            39.0450609191       38.4547347990       52.2522974503  MEMB      6               0.0000000000
       892        12  POPS      H3X            38.2284524167       38.6611045456       51.5314492833  MEMB      6               0.0000000000
       893        12  POPS      H3Y            39.6789511284       37.6448146769       51.8290644635  MEMB      6               0.0000000000
       894        12  POPS      C34            39.8762648136       39.7386050989       52.4344796486  MEMB      6               0.0000000000
       895        12  POPS      H4X            39.4839031451       40.2936329270       53.3132472891  MEMB      6               0.0000000000
       896        12  POPS      H4Y            39.7611248272       40.3926898274       51.5425167346  MEMB      6               0.0000000000
       897        12  POPS      C35            41.3824102162       39.4961196783       52.5972158264  MEMB      6               0.0000000000
       898        12  POPS      H5X            41.8305653622       39.3349279005       51.5951279588  MEMB      6               0.0000000000
       899        12  POPS      H5Y            41.5440017519       38.5552010874       53.1574739113  MEMB      6               0.0000000000
       900        12  POPS      C36            42.1312272183       40.6078265540       53.3463739695  MEMB      6               0.0000000000
       901        12  POPS      H6X            42.7105280078       40.1441807052       54.1767399738  MEMB      6               0.0000000000
       902        12  POPS      H6Y            41.4372121847       41.3230148931       53.8301987047  MEMB      6               0.0000000000
       903        12  POPS      C37            43.1203593051       41.3686312044       52.4605513475  MEMB      6               0.0000000000
       904        12  POPS      H7X            43.5289503793       40.6892362792       51.6804459046  MEMB      6               0.0000000000
       905        12  POPS      H7Y            43.9654627869       41.6978604082       53.1010675932  MEMB      6               0.0000000000
       906        12  POPS      C38            42.5023550480       42.6144547510       51.8282307830  MEMB      6               0.0000000000
       907        12  POPS      H8X            42.4028860522       43.4036143117       52.6074371807  MEMB      6               0.0000000000
       908        12  POPS      H8Y            41.4817771328       42.3564596872       51.4746247572  MEMB      6               0.0000000000
       909        12  POPS      C39            43.3004381394       43.1291180090       50.6291068757  MEMB      6               0.0000000000
       910        12  POPS      H9X            44.3900898806       43.1234400063       50.8533203752  MEMB      6               0.0000000000
       911        12  POPS      H9Y            43.0025107766       44.1838431082       50.4420573004  MEMB      6               0.0000000000
       912        12  POPS      C310           42.9819767343       42.2893474142       49.3851543498  MEMB      6               0.0000000000
       913        12  POPS      H10X           41.8732527395       42.2239983019       49.3073485147  MEMB      6               0.0000000000
       914        12  POPS      H10Y           43.3694290502       41.2568621801       49.5195642142  MEMB      6               0.0000000000
       915        12  POPS      C311           43.5182345776       42.8767934580       48.0787790021  MEMB      6               0.0000000000
       916        12  POPS      H11X           44.6268283309       42.9604052396       48.1271365978  MEMB      6               0.0000000000
       917        12  POPS      H11Y           43.1255808120       43.9052738854       47.9917499233  MEMB      6               0.0000000000
       918        12  POPS      C312           43.1100347616       42.0514205742       46.8449285372  MEMB      6               0.0000000000
       919        12  POPS      H12X           43.4969771871       41.0187943055       46.9843558102  MEMB      6               0.0000000000
       920        12  POPS      H12Y           43.6063674672       42.4759928452       45.9474057919  MEMB      6               0.0000000000
       921        12  POPS      C313           41.5935499728       41.9659385225       46.5793525716  MEMB      6               0.0000000000
       922        12  POPS      H13X           41.1043846734       41.5036370775       47.4620333781  MEMB      6               0.0000000000
       923        12  POPS      H13Y           41.4141817680       41.2858733601       45.7170523883  MEMB      6               0.0000000000
       924        12  POPS      C314           40.9321026367       43.3241687851       46.2935947245  MEMB      6               0.0000000000
       925        12  POPS      H14X           41.4629210892       43.8145402747       45.4467518151  MEMB      6               0.0000000000
       926        12  POPS      H14Y           41.0417149219       43.9624483121       47.1967748334  MEMB      6               0.0000000000
       927        12  POPS      C315           39.4337503899       43.2487765380       45.9767987010  MEMB      6               0.0000000000
       928        12  POPS      H15X           38.8561026578       43.8544057275       46.7126579544  MEMB      6               0.0000000000
       929        12  POPS      H15Y           39.0980179981       42.1946846986       46.0694523760  MEMB      6               0.0000000000
       930        12  POPS      C316           39.0957022161       43.7474745043       44.5901480728  MEMB      6               0.0000000000
       931        12  POPS      H16X           39.2679927987       44.8443671670       44.5229434386  MEMB      6               0.0000000000
       932        12  POPS      H16Y           38.0355778371       43.5370565884       44.3279100486  MEMB      6               0.0000000000
       933        12  POPS      H16Z           39.7507746217       43.2430703338       43.8484569340  MEMB      6               0.0000000000
       934        13  POPC      N              30.2491689827       19.3702555527       62.6206321670  MEMB      7               0.0000000000
       935        13  POPC      C12            28.9787009784       18.6643544778       62.1439167173  MEMB      7               0.0000000000
       936        13  POPC      H12A           28.1556548290       18.9868252958       62.7841728622  MEMB      7               0.0000000000
       937        13  POPC      H12B           29.0609441816       17.5931649094       62.2549144356  MEMB      7               0.0000000000
       938        13  POPC      C13            30.0154778026       20.8461338520       62.4844558063  MEMB      7               0.0000000000
       939        13  POPC      H13A           30.8759744206       21.4280377802       62.7516400993  MEMB      7               0.0000000000
       940        13  POPC      H13B           29.7247139773       21.0729153397       61.4509196974  MEMB      7               0.0000000000
       941        13  POPC      H13C           29.1527683173       21.1740291764       63.0671211135  MEMB      7               0.0000000000
       942        13  POPC      C14            30.5370029243       19.0803939953       64.0578410018  MEMB      7               0.0000000000
       943        13  POPC      H14A           30.7470769613       18.0306204377       64.2452229690  MEMB      7               0.0000000000
       944        13  POPC      H14B           31.3666794293       19.6722765900       64.4472118841  MEMB      7               0.0000000000
       945        13  POPC      H14C           29.6603560379       19.3491991193       64.6363971785  MEMB      7               0.0000000000
       946        13  POPC      C15            31.3909131871       18.9839603534       61.7383954656  MEMB      7               0.0000000000
       947        13  POPC      H15A           31.1254161860       19.2474607156       60.7133244554  MEMB      7               0.0000000000
       948        13  POPC      H15B           31.5629581555       17.9147442555       61.7885016266  MEMB      7               0.0000000000
       949        13  POPC      H15C           32.2897297619       19.5116100778       62.0141508913  MEMB      7               0.0000000000
       950        13  POPC      C11            28.5078322673       18.9679516012       60.6977072914  MEMB      7               0.0000000000
       951        13  POPC      H11A           27.6965705336       18.2524656818       60.4084185307  MEMB      7               0.0000000000
       952        13  POPC      H11B           29.3207776692       18.7960966172       59.9624518968  MEMB      7               0.0000000000
       953        13  POPC      P              26.6119549289       20.6579967971       61.1073264820  MEMB      7               0.0000000000
       954        13  POPC      O13            26.6718369988       20.5213783899       62.5910333784  MEMB      7               0.0000000000
       955        13  POPC      O14            25.6657476805       19.7710928686       60.4133945269  MEMB      7               0.0000000000
       956        13  POPC      O12            28.0772715458       20.3271357062       60.5957390260  MEMB      7               0.0000000000
       957        13  POPC      O11            26.3740817264       22.1579613837       60.6363620616  MEMB      7               0.0000000000
       958        13  POPC      C1             27.3651249384       22.9074892905       59.9148608684  MEMB      7               0.0000000000
       959        13  POPC      HA             28.3721770172       22.7402977011       60.3559774150  MEMB      7               0.0000000000
       960        13  POPC      HB             27.1450372137       23.9899704505       60.0540158991  MEMB      7               0.0000000000
       961        13  POPC      C2             27.4698941120       22.6669808452       58.3560849744  MEMB      7               0.0000000000
       962        13  POPC      HS             26.7052394045       23.3070372634       57.8570310293  MEMB      7               0.0000000000
       963        13  POPC      O21            27.3202408269       21.2792876350       58.0156665237  MEMB      7               0.0000000000
       964        13  POPC      C21            26.1635243670       20.9258854460       57.4927234849  MEMB      7               0.0000000000
       965        13  POPC      O22            25.2369385314       21.6736643525       57.2238266203  MEMB      7               0.0000000000
       966        13  POPC      C22            26.2061396824       19.4236116653       57.1886619830  MEMB      7               0.0000000000
       967        13  POPC      H2R            25.1591956635       19.0738873511       57.1048039092  MEMB      7               0.0000000000
       968        13  POPC      H2S            26.6657820274       18.9152145421       58.0630545369  MEMB      7               0.0000000000
       969        13  POPC      C3             28.8653191188       23.1272082421       57.8260505257  MEMB      7               0.0000000000
       970        13  POPC      HX             29.6143294228       22.7437247388       58.5521004724  MEMB      7               0.0000000000
       971        13  POPC      HY             28.9121115337       24.2417761802       57.8577910102  MEMB      7               0.0000000000
       972        13  POPC      O31            29.1914250565       22.5486311940       56.5376974026  MEMB      7               0.0000000000
       973        13  POPC      C31            29.5162072952       23.3809011879       55.5542266422  MEMB      7               0.0000000000
       974        13  POPC      O32            29.4907735638       24.5916502179       55.6111949077  MEMB      7               0.0000000000
       975        13  POPC      C32            29.8844445978       22.5768677802       54.3081782016  MEMB      7               0.0000000000
       976        13  POPC      H2X            29.6476354647       23.1958508666       53.4187777804  MEMB      7               0.0000000000
       977        13  POPC      H2Y            29.2266243732       21.6847869302       54.2977513055  MEMB      7               0.0000000000
       978        13  POPC      C23            26.9948724323       19.0890213694       55.8987581305  MEMB      7               0.0000000000
       979        13  POPC      H3R            27.0017332597       17.9818472571       55.7681863474  MEMB      7               0.0000000000
       980        13  POPC      H3S            28.0552852483       19.4211533193       55.9906804831  MEMB      7               0.0000000000
       981        13  POPC      C24            26.3683985324       19.7233438817       54.6486513806  MEMB      7               0.0000000000
       982        13  POPC      H4R            26.5567316020       20.8187083916       54.6891090451  MEMB      7               0.0000000000
       983        13  POPC      H4S            25.2649388761       19.5745306563       54.6727293541  MEMB      7               0.0000000000
       984        13  POPC      C25            26.9156844851       19.1418924667       53.3387611306  MEMB      7               0.0000000000
       985        13  POPC      H5R            26.5635713965       18.0895972001       53.2431345334  MEMB      7               0.0000000000
       986        13  POPC      H5S            28.0251255927       19.1099196557       53.3803281990  MEMB      7               0.0000000000
       987        13  POPC      C26            26.4820356637       19.9237807483       52.0867108224  MEMB      7               0.0000000000
       988        13  POPC      H6R            25.3725680271       19.9930774194       52.0577902081  MEMB      7               0.0000000000
       989        13  POPC      H6S            26.8056787852       19.3314673031       51.2001445836  MEMB      7               0.0000000000
       990        13  POPC      C27            27.0832775682       21.3404934820       52.0004575634  MEMB      7               0.0000000000
       991        13  POPC      H7R            28.1771702607       21.2814246289       52.1793711828  MEMB      7               0.0000000000
       992        13  POPC      H7S            26.6474284928       21.9642178495       52.8118205573  MEMB      7               0.0000000000
       993        13  POPC      C28            26.8419419942       22.0531464383       50.6553332995  MEMB      7               0.0000000000
       994        13  POPC      H8R            27.2620775827       23.0815342334       50.7151553854  MEMB      7               0.0000000000
       995        13  POPC      H8S            25.7435090407       22.1657516994       50.5128550230  MEMB      7               0.0000000000
       996        13  POPC      C29            27.4953677223       21.3046647754       49.5195316662  MEMB      7               0.0000000000
       997        13  POPC      H91            28.5851829413       21.1844668681       49.6045206340  MEMB      7               0.0000000000
       998        13  POPC      C210           26.8716768695       20.7792319761       48.4538062535  MEMB      7               0.0000000000
       999        13  POPC      H101           27.4493367518       20.2179695793       47.7099190031  MEMB      7               0.0000000000
      1000        13  POPC      C211           25.4003708340       20.8323951165       48.1749773120  MEMB      7               0.0000000000
      1001        13  POPC      H11R           24.8045921768       20.6905501579       49.1045330722  MEMB      7               0.0000000000
      1002        13  POPC      H11S           25.1260058401       20.0033871053       47.4898855648  MEMB      7               0.0000000000
      1003        13  POPC      C212           25.0005145769       22.1646348920       47.5274459316  MEMB      7               0.0000000000
      1004        13  POPC      H12R           25.3099975763       23.0244549955       48.1623305783  MEMB      7               0.0000000000
      1005        13  POPC      H12S           23.8929930909       22.1872832096       47.4661962717  MEMB      7               0.0000000000
      1006        13  POPC      C213           25.5241736713       22.3574984086       46.0993114003  MEMB      7               0.0000000000
      1007        13  POPC      H13R           25.3507350330       21.4266601830       45.5143088810  MEMB      7               0.0000000000
      1008        13  POPC      H13S           26.6187822687       22.5514809833       46.1170465202  MEMB      7               0.0000000000
      1009        13  POPC      C214           24.7921620900       23.5224085640       45.4270417976  MEMB      7               0.0000000000
      1010        13  POPC      H14R           24.8700086933       24.4204986901       46.0806949893  MEMB      7               0.0000000000
      1011        13  POPC      H14S           23.7122227303       23.2643103931       45.3422553580  MEMB      7               0.0000000000
      1012        13  POPC      C215           25.3134299312       23.8706688149       44.0328425369  MEMB      7               0.0000000000
      1013        13  POPC      H15R           26.3384791011       24.2968816641       44.1224249242  MEMB      7               0.0000000000
      1014        13  POPC      H15S           24.6424563229       24.6548950254       43.6192175685  MEMB      7               0.0000000000
      1015        13  POPC      C216           25.3376150106       22.6805318093       43.0669806232  MEMB      7               0.0000000000
      1016        13  POPC      H16R           24.4231101941       22.0636891786       43.2176804043  MEMB      7               0.0000000000
      1017        13  POPC      H16S           26.2198189363       22.0508100493       43.3109710551  MEMB      7               0.0000000000
      1018        13  POPC      C217           25.3997693638       23.1011914242       41.5945232672  MEMB      7               0.0000000000
      1019        13  POPC      H17R           24.3843843731       23.4436368487       41.2907907444  MEMB      7               0.0000000000
      1020        13  POPC      H17S           25.6460651941       22.2197119266       40.9643312789  MEMB      7               0.0000000000
      1021        13  POPC      C218           26.3945365929       24.2213360604       41.3063228352  MEMB      7               0.0000000000
      1022        13  POPC      H18R           26.6984190965       24.2301471346       40.2404451158  MEMB      7               0.0000000000
      1023        13  POPC      H18S           27.3057175504       24.1236588756       41.9343797251  MEMB      7               0.0000000000
      1024        13  POPC      H18T           25.9065973998       25.1851293061       41.5273160843  MEMB      7               0.0000000000
      1025        13  POPC      C33            31.3735696624       22.1580081815       54.2619492445  MEMB      7               0.0000000000
      1026        13  POPC      H3X            31.6425396604       21.5924483297       55.1819375035  MEMB      7               0.0000000000
      1027        13  POPC      H3Y            32.0270452581       23.0579158621       54.2388106857  MEMB      7               0.0000000000
      1028        13  POPC      C34            31.6981433385       21.2884634310       53.0378448999  MEMB      7               0.0000000000
      1029        13  POPC      H4X            32.7831530027       21.0367203274       53.0555245064  MEMB      7               0.0000000000
      1030        13  POPC      H4Y            31.5062049410       21.8779396815       52.1153340538  MEMB      7               0.0000000000
      1031        13  POPC      C35            30.8776274739       19.9889072588       52.9856918248  MEMB      7               0.0000000000
      1032        13  POPC      H5X            29.7964983559       20.2154177260       52.9215836700  MEMB      7               0.0000000000
      1033        13  POPC      H5Y            31.0442311869       19.4327851870       53.9365242787  MEMB      7               0.0000000000
      1034        13  POPC      C36            31.2401186020       19.0883867301       51.8013671972  MEMB      7               0.0000000000
      1035        13  POPC      H6X            30.8815071442       18.0526381258       52.0006278774  MEMB      7               0.0000000000
      1036        13  POPC      H6Y            32.3484400537       19.0647278925       51.7227726179  MEMB      7               0.0000000000
      1037        13  POPC      C37            30.6601366209       19.5430389968       50.4541623093  MEMB      7               0.0000000000
      1038        13  POPC      H7X            30.8447301218       20.6357276744       50.3464235811  MEMB      7               0.0000000000
      1039        13  POPC      H7Y            29.5607539870       19.3889300881       50.4443919086  MEMB      7               0.0000000000
      1040        13  POPC      C38            31.3333990637       18.8237400317       49.2728688574  MEMB      7               0.0000000000
      1041        13  POPC      H8X            32.3993909892       18.6774965944       49.5408503596  MEMB      7               0.0000000000
      1042        13  POPC      H8Y            31.3272491628       19.4755036330       48.3769948830  MEMB      7               0.0000000000
      1043        13  POPC      C39            30.7529208989       17.4437654425       48.9221126534  MEMB      7               0.0000000000
      1044        13  POPC      H9X            30.7338291012       16.8364308374       49.8565498439  MEMB      7               0.0000000000
      1045        13  POPC      H9Y            31.4414358731       16.9325305454       48.2111999279  MEMB      7               0.0000000000
      1046        13  POPC      C310           29.3432015508       17.4493901705       48.3102339557  MEMB      7               0.0000000000
      1047        13  POPC      H10X           28.6612159262       18.1095240577       48.8882377845  MEMB      7               0.0000000000
      1048        13  POPC      H10Y           28.9456294881       16.4109305454       48.4096960971  MEMB      7               0.0000000000
      1049        13  POPC      C311           29.2724994995       17.7936406660       46.8102462118  MEMB      7               0.0000000000
      1050        13  POPC      H11X           28.2263351950       17.5697177372       46.4919689720  MEMB      7               0.0000000000
      1051        13  POPC      H11Y           29.9349839546       17.1199391904       46.2246729921  MEMB      7               0.0000000000
      1052        13  POPC      C312           29.5654769546       19.2609237019       46.4462012163  MEMB      7               0.0000000000
      1053        13  POPC      H12X           30.6237482003       19.3830232382       46.1296733877  MEMB      7               0.0000000000
      1054        13  POPC      H12Y           29.4263664875       19.8862696517       47.3548029514  MEMB      7               0.0000000000
      1055        13  POPC      C313           28.6132067211       19.7807135198       45.3606938587  MEMB      7               0.0000000000
      1056        13  POPC      H13X           28.5902714136       20.8906794885       45.3459013184  MEMB      7               0.0000000000
      1057        13  POPC      H13Y           27.5810836915       19.4495735062       45.6202388079  MEMB      7               0.0000000000
      1058        13  POPC      C314           28.9552734303       19.2666920627       43.9602964120  MEMB      7               0.0000000000
      1059        13  POPC      H14X           29.2697847571       18.2013555379       44.0231407401  MEMB      7               0.0000000000
      1060        13  POPC      H14Y           29.8088971521       19.8472487803       43.5429587519  MEMB      7               0.0000000000
      1061        13  POPC      C315           27.7432442731       19.3655575250       43.0318967200  MEMB      7               0.0000000000
      1062        13  POPC      H15X           27.5313665340       20.4435750029       42.8630528938  MEMB      7               0.0000000000
      1063        13  POPC      H15Y           26.8541089117       18.9306600279       43.5436583760  MEMB      7               0.0000000000
      1064        13  POPC      C316           27.9397931499       18.6575838397       41.6964017477  MEMB      7               0.0000000000
      1065        13  POPC      H16X           28.8660237372       19.0278027422       41.2087567788  MEMB      7               0.0000000000
      1066        13  POPC      H16Y           27.0788970574       18.8537574729       41.0203395658  MEMB      7               0.0000000000
      1067        13  POPC      H16Z           28.0346366484       17.5602011707       41.8421768117  MEMB      7               0.0000000000
      1068        14  POPS      N              22.5139580868       24.2327769347       62.4703065202  MEMB      8               0.0000000000
      1069        14  POPS      HN1            22.8099236199       23.2868929057       62.1595256460  MEMB      8               0.0000000000
      1070        14  POPS      HN2            22.4274557737       24.2349850027       63.4998864734  MEMB      8               0.0000000000
      1071        14  POPS      HN3            21.5728193191       24.4390629564       62.0503823056  MEMB      8               0.0000000000
      1072        14  POPS      C12            23.5052761327       25.2601506901       62.0221729320  MEMB      8               0.0000000000
      1073        14  POPS      H12A           23.5791518220       25.2009932458       60.9452837021  MEMB      8               0.0000000000
      1074        14  POPS      C13            24.9347552079       25.2055362924       62.5909289412  MEMB      8               0.0000000000
      1075        14  POPS      O13A           25.1926262938       24.7214611181       63.7352199885  MEMB      8               0.0000000000
      1076        14  POPS      O13B           25.8038675579       25.7354150098       61.8490979416  MEMB      8               0.0000000000
      1077        14  POPS      C11            22.9521056810       26.6547206697       62.3765292141  MEMB      8               0.0000000000
      1078        14  POPS      H11A           23.6075490259       27.4297979245       61.9073387301  MEMB      8               0.0000000000
      1079        14  POPS      H11B           22.9689262393       26.8069272831       63.4839009264  MEMB      8               0.0000000000
      1080        14  POPS      P              20.7874948334       28.0398740273       62.0783898849  MEMB      8               0.0000000000
      1081        14  POPS      O13            21.6783266140       29.1630404838       61.6817733056  MEMB      8               0.0000000000
      1082        14  POPS      O14            20.3269649878       27.9837587807       63.4778638640  MEMB      8               0.0000000000
      1083        14  POPS      O12            21.6301782509       26.7322732959       61.8662523961  MEMB      8               0.0000000000
      1084        14  POPS      O11            19.6194996565       27.6910315045       61.0910553200  MEMB      8               0.0000000000
      1085        14  POPS      C1             18.8416005095       26.4980693861       61.2859734072  MEMB      8               0.0000000000
      1086        14  POPS      HA             17.9262624262       26.8224735711       61.8361505611  MEMB      8               0.0000000000
      1087        14  POPS      HB             19.3212394114       25.7229937420       61.9200808919  MEMB      8               0.0000000000
      1088        14  POPS      C2             18.3108686829       25.8900287130       59.9417824652  MEMB      8               0.0000000000
      1089        14  POPS      HS             17.4026649378       25.2998503143       60.2047753845  MEMB      8               0.0000000000
      1090        14  POPS      O21            19.1656726828       25.0297551598       59.1678355675  MEMB      8               0.0000000000
      1091        14  POPS      C21            20.0219584477       24.1750070938       59.6146351895  MEMB      8               0.0000000000
      1092        14  POPS      O22            20.2201498076       23.8177952425       60.7671207834  MEMB      8               0.0000000000
      1093        14  POPS      C22            20.9559803724       23.8043917403       58.4514928743  MEMB      8               0.0000000000
      1094        14  POPS      H2R            21.6519904542       23.0392760056       58.8461350156  MEMB      8               0.0000000000
      1095        14  POPS      H2S            21.5384131905       24.7083920248       58.1846673537  MEMB      8               0.0000000000
      1096        14  POPS      C3             17.8760126729       27.0609531413       59.0033127628  MEMB      8               0.0000000000
      1097        14  POPS      HX             17.1776398239       27.6870743850       59.5932715359  MEMB      8               0.0000000000
      1098        14  POPS      HY             17.2985866136       26.6519961022       58.1581093430  MEMB      8               0.0000000000
      1099        14  POPS      O31            18.9746214515       27.8940209408       58.5482771221  MEMB      8               0.0000000000
      1100        14  POPS      C31            19.6650905181       27.4409809285       57.5174148109  MEMB      8               0.0000000000
      1101        14  POPS      O32            19.3677736461       26.4911921320       56.8243661013  MEMB      8               0.0000000000
      1102        14  POPS      C32            20.9095727547       28.2730297645       57.2516201749  MEMB      8               0.0000000000
      1103        14  POPS      H2X            21.4324540588       28.4705594121       58.2096520097  MEMB      8               0.0000000000
      1104        14  POPS      H2Y            20.5574031327       29.2358415439       56.8322924366  MEMB      8               0.0000000000
      1105        14  POPS      C23            20.2701399761       23.2470604260       57.1767262459  MEMB      8               0.0000000000
      1106        14  POPS      H3R            19.6508419485       24.0263023851       56.6809356421  MEMB      8               0.0000000000
      1107        14  POPS      H3S            19.5701177979       22.4314291123       57.4543235525  MEMB      8               0.0000000000
      1108        14  POPS      C24            21.2881071775       22.6787925636       56.1737180435  MEMB      8               0.0000000000
      1109        14  POPS      H4R            20.7319630152       22.1226246134       55.3846659951  MEMB      8               0.0000000000
      1110        14  POPS      H4S            21.9510406928       21.9509812599       56.6860201279  MEMB      8               0.0000000000
      1111        14  POPS      C25            22.1567814600       23.7440256915       55.4900280108  MEMB      8               0.0000000000
      1112        14  POPS      H5R            22.7655676793       24.2969176765       56.2351855342  MEMB      8               0.0000000000
      1113        14  POPS      H5S            21.4618099307       24.4877892817       55.0418362175  MEMB      8               0.0000000000
      1114        14  POPS      C26            23.0760611625       23.1614593362       54.3975906331  MEMB      8               0.0000000000
      1115        14  POPS      H6R            22.7740772822       22.1143641673       54.1706211649  MEMB      8               0.0000000000
      1116        14  POPS      H6S            24.1160924395       23.1228342769       54.7948038344  MEMB      8               0.0000000000
      1117        14  POPS      C27            23.0511569014       23.9746125432       53.0913209632  MEMB      8               0.0000000000
      1118        14  POPS      H7R            23.8609492354       23.6183252619       52.4147428032  MEMB      8               0.0000000000
      1119        14  POPS      H7S            23.2764917107       25.0320901643       53.3645847058  MEMB      8               0.0000000000
      1120        14  POPS      C28            21.6996181826       23.8706962478       52.3553984083  MEMB      8               0.0000000000
      1121        14  POPS      H8R            20.8812398706       23.7822864380       53.1049767747  MEMB      8               0.0000000000
      1122        14  POPS      H8S            21.6743819130       22.9269790931       51.7669097173  MEMB      8               0.0000000000
      1123        14  POPS      C29            21.4290775597       25.0828862721       51.5044176957  MEMB      8               0.0000000000
      1124        14  POPS      H91            20.8869215460       25.8838643107       52.0273020581  MEMB      8               0.0000000000
      1125        14  POPS      C210           21.7846918847       25.2666488719       50.2235356171  MEMB      8               0.0000000000
      1126        14  POPS      H101           21.4979729587       26.2023536048       49.7160234340  MEMB      8               0.0000000000
      1127        14  POPS      C211           22.5364996889       24.2658594064       49.3904634626  MEMB      8               0.0000000000
      1128        14  POPS      H11R           23.0685295779       23.5269109180       50.0327217583  MEMB      8               0.0000000000
      1129        14  POPS      H11S           23.3212560309       24.7677645249       48.7817240033  MEMB      8               0.0000000000
      1130        14  POPS      C212           21.5868217120       23.4872024684       48.4674163946  MEMB      8               0.0000000000
      1131        14  POPS      H12R           20.6263924721       23.2423831679       48.9730173335  MEMB      8               0.0000000000
      1132        14  POPS      H12S           22.0648698674       22.5090217885       48.2477553400  MEMB      8               0.0000000000
      1133        14  POPS      C213           21.3331374212       24.1928650567       47.1294353584  MEMB      8               0.0000000000
      1134        14  POPS      H13R           22.2811937123       24.6437878198       46.7595701872  MEMB      8               0.0000000000
      1135        14  POPS      H13S           20.5977046024       25.0158595270       47.2663983520  MEMB      8               0.0000000000
      1136        14  POPS      C214           20.8326960526       23.2075069782       46.0736474781  MEMB      8               0.0000000000
      1137        14  POPS      H14R           19.8551089248       22.7946338785       46.4140000050  MEMB      8               0.0000000000
      1138        14  POPS      H14S           21.5452336046       22.3545669588       45.9941366950  MEMB      8               0.0000000000
      1139        14  POPS      C215           20.6661033838       23.8295454407       44.6848578607  MEMB      8               0.0000000000
      1140        14  POPS      H15R           21.6548291381       24.1025104996       44.2567117720  MEMB      8               0.0000000000
      1141        14  POPS      H15S           20.0564106320       24.7581186055       44.7738160249  MEMB      8               0.0000000000
      1142        14  POPS      C216           19.9324638694       22.8510138882       43.7694447974  MEMB      8               0.0000000000
      1143        14  POPS      H16R           18.9858345176       22.6326963158       44.3074283599  MEMB      8               0.0000000000
      1144        14  POPS      H16S           20.5018914532       21.8987938035       43.6798191057  MEMB      8               0.0000000000
      1145        14  POPS      C217           19.6188896828       23.3968898494       42.3722913931  MEMB      8               0.0000000000
      1146        14  POPS      H17R           19.2163334859       24.4311270122       42.4505816950  MEMB      8               0.0000000000
      1147        14  POPS      H17S           18.8222229174       22.7759002696       41.9122810136  MEMB      8               0.0000000000
      1148        14  POPS      C218           20.8166255277       23.3488252031       41.4306818020  MEMB      8               0.0000000000
      1149        14  POPS      H18R           21.1878527967       22.3065375298       41.3324899201  MEMB      8               0.0000000000
      1150        14  POPS      H18S           21.6416258445       23.9697930644       41.8299392034  MEMB      8               0.0000000000
      1151        14  POPS      H18T           20.5408752905       23.7262143202       40.4218770624  MEMB      8               0.0000000000
      1152        14  POPS      C33            21.8191848488       27.4913756213       56.2624782618  MEMB      8               0.0000000000
      1153        14  POPS      H3X            21.2119425982       26.9367220891       55.5089074137  MEMB      8               0.0000000000
      1154        14  POPS      H3Y            22.3856538896       26.7193073466       56.8303925162  MEMB      8               0.0000000000
      1155        14  POPS      C34            22.7866205400       28.3464895991       55.4361682585  MEMB      8               0.0000000000
      1156        14  POPS      H4X            23.3803465484       27.6711698068       54.7784002162  MEMB      8               0.0000000000
      1157        14  POPS      H4Y            23.4940946253       28.8576458159       56.1294460648  MEMB      8               0.0000000000
      1158        14  POPS      C35            22.1105228202       29.4118857881       54.5579260499  MEMB      8               0.0000000000
      1159        14  POPS      H5X            22.9103385723       29.9702471098       54.0293453149  MEMB      8               0.0000000000
      1160        14  POPS      H5Y            21.6178927903       30.1309182391       55.2485899005  MEMB      8               0.0000000000
      1161        14  POPS      C36            21.0521140760       28.9381086209       53.5362610076  MEMB      8               0.0000000000
      1162        14  POPS      H6X            20.3757120775       29.7926705691       53.3074134661  MEMB      8               0.0000000000
      1163        14  POPS      H6Y            20.4060726713       28.1505704069       53.9790732594  MEMB      8               0.0000000000
      1164        14  POPS      C37            21.6102490558       28.4558435790       52.1846363009  MEMB      8               0.0000000000
      1165        14  POPS      H7X            20.7460161050       28.1439520396       51.5536224962  MEMB      8               0.0000000000
      1166        14  POPS      H7Y            22.2510568773       27.5639453790       52.3619077543  MEMB      8               0.0000000000
      1167        14  POPS      C38            22.4396879188       29.4975490406       51.4111697017  MEMB      8               0.0000000000
      1168        14  POPS      H8X            23.4056395929       29.6209844180       51.9528114632  MEMB      8               0.0000000000
      1169        14  POPS      H8Y            21.9218556300       30.4810176086       51.4091606802  MEMB      8               0.0000000000
      1170        14  POPS      C39            22.7578926780       29.0843839317       49.9606939170  MEMB      8               0.0000000000
      1171        14  POPS      H9X            23.0190889929       28.0036910380       49.9367555232  MEMB      8               0.0000000000
      1172        14  POPS      H9Y            23.6581392828       29.6477564655       49.6244701581  MEMB      8               0.0000000000
      1173        14  POPS      C310           21.6227086790       29.3736525840       48.9631764135  MEMB      8               0.0000000000
      1174        14  POPS      H10X           21.4211347758       30.4685313904       48.9547894050  MEMB      8               0.0000000000
      1175        14  POPS      H10Y           20.6952391880       28.8588554351       49.2999802398  MEMB      8               0.0000000000
      1176        14  POPS      C311           21.9541964220       28.9098004311       47.5335006306  MEMB      8               0.0000000000
      1177        14  POPS      H11X           22.1668048974       27.8177354023       47.5509089020  MEMB      8               0.0000000000
      1178        14  POPS      H11Y           22.8774242049       29.4238314833       47.1824557996  MEMB      8               0.0000000000
      1179        14  POPS      C312           20.8210129378       29.1836340538       46.5304512745  MEMB      8               0.0000000000
      1180        14  POPS      H12X           20.8041341462       30.2760880228       46.3127822436  MEMB      8               0.0000000000
      1181        14  POPS      H12Y           19.8437773026       28.9126473104       46.9868041379  MEMB      8               0.0000000000
      1182        14  POPS      C313           20.9750962779       28.3980300841       45.2174525541  MEMB      8               0.0000000000
      1183        14  POPS      H13X           20.6944391819       27.3329399801       45.3773118739  MEMB      8               0.0000000000
      1184        14  POPS      H13Y           22.0514965660       28.4057895163       44.9343570272  MEMB      8               0.0000000000
      1185        14  POPS      C314           20.1620232869       28.9907258960       44.0490902541  MEMB      8               0.0000000000
      1186        14  POPS      H14X           20.8185812211       29.0338894350       43.1516775426  MEMB      8               0.0000000000
      1187        14  POPS      H14Y           19.8713913838       30.0394783240       44.2740084234  MEMB      8               0.0000000000
      1188        14  POPS      C315           18.9172893940       28.1767366259       43.6724223654  MEMB      8               0.0000000000
      1189        14  POPS      H15X           19.1945871201       27.0999219784       43.5921982202  MEMB      8               0.0000000000
      1190        14  POPS      H15Y           18.5689550990       28.5018815720       42.6646347817  MEMB      8               0.0000000000
      1191        14  POPS      C316           17.7671119014       28.3403574990       44.6631481540  MEMB      8               0.0000000000
      1192        14  POPS      H16X           17.4097069548       29.3920159473       44.6858863339  MEMB      8               0.0000000000
      1193        14  POPS      H16Y           18.0991768988       28.0603120144       45.6851610498  MEMB      8               0.0000000000
      1194        14  POPS      H16Z           16.9135800786       27.6954630730       44.3716416678  MEMB      8               0.0000000000
      1195        15  POPC      N              26.7150191293       43.0961860027       62.7192750493  MEMB      9               0.0000000000
      1196        15  POPC      C12            27.6681784372       44.0483465876       62.0027868815  MEMB      9               0.0000000000
      1197        15  POPC      H12A           28.3421260869       43.4648316056       61.3944079533  MEMB      9               0.0000000000
      1198        15  POPC      H12B           28.2561982361       44.5733209017       62.7543188551  MEMB      9               0.0000000000
      1199        15  POPC      C13            25.7898586410       42.4718161445       61.7204082731  MEMB      9               0.0000000000
      1200        15  POPC      H13A           25.3094871977       43.2915103278       61.1719013876  MEMB      9               0.0000000000
      1201        15  POPC      H13B           26.3143569044       41.8528741353       61.0106213076  MEMB      9               0.0000000000
      1202        15  POPC      H13C           25.0078067274       41.9015750915       62.2059503231  MEMB      9               0.0000000000
      1203        15  POPC      C14            27.4758110046       42.0547122402       63.4609858839  MEMB      9               0.0000000000
      1204        15  POPC      H14A           26.8023368654       41.3913507275       64.0067325948  MEMB      9               0.0000000000
      1205        15  POPC      H14B           28.0697697057       41.4759173796       62.7722178492  MEMB      9               0.0000000000
      1206        15  POPC      H14C           28.1333373975       42.5320059950       64.1805750301  MEMB      9               0.0000000000
      1207        15  POPC      C15            25.8613045787       43.8432751092       63.6952042620  MEMB      9               0.0000000000
      1208        15  POPC      H15A           26.4532912386       44.4897398606       64.3279851109  MEMB      9               0.0000000000
      1209        15  POPC      H15B           25.2330256529       43.1857495220       64.2810758332  MEMB      9               0.0000000000
      1210        15  POPC      H15C           25.2123797184       44.5148939102       63.1334906400  MEMB      9               0.0000000000
      1211        15  POPC      C11            27.0725059316       45.1386828415       61.0830033624  MEMB      9               0.0000000000
      1212        15  POPC      H11A           26.5085032986       44.6694967179       60.2402029688  MEMB      9               0.0000000000
      1213        15  POPC      H11B           27.9045654497       45.7053822802       60.6083428370  MEMB      9               0.0000000000
      1214        15  POPC      P              24.8080541091       46.3609780578       61.4798033287  MEMB      9               0.0000000000
      1215        15  POPC      O13            24.7704542975       47.3513509064       60.3899942331  MEMB      9               0.0000000000
      1216        15  POPC      O14            24.0917213650       46.6594532042       62.7527016588  MEMB      9               0.0000000000
      1217        15  POPC      O12            26.3018253810       46.0480682308       61.8569391494  MEMB      9               0.0000000000
      1218        15  POPC      O11            24.2808238151       44.9511110700       60.8829261807  MEMB      9               0.0000000000
      1219        15  POPC      C1             23.1634218519       45.0313671442       59.9796779616  MEMB      9               0.0000000000
      1220        15  POPC      HA             23.3042376952       45.8532958099       59.2409019897  MEMB      9               0.0000000000
      1221        15  POPC      HB             22.2310993557       45.2378542223       60.5524817477  MEMB      9               0.0000000000
      1222        15  POPC      C2             22.8875396950       43.7600773144       59.1027852568  MEMB      9               0.0000000000
      1223        15  POPC      HS             22.9634495036       42.8600810294       59.7529974313  MEMB      9               0.0000000000
      1224        15  POPC      O21            23.8376188102       43.7004306852       58.0147845409  MEMB      9               0.0000000000
      1225        15  POPC      C21            23.8170095144       42.5473433969       57.3374980848  MEMB      9               0.0000000000
      1226        15  POPC      O22            23.1573092547       41.5738621079       57.6605499813  MEMB      9               0.0000000000
      1227        15  POPC      C22            24.8445070043       42.5820694244       56.2050513244  MEMB      9               0.0000000000
      1228        15  POPC      H2R            25.3757387006       41.6086313228       56.2036879787  MEMB      9               0.0000000000
      1229        15  POPC      H2S            25.5826931418       43.3819866902       56.4288097446  MEMB      9               0.0000000000
      1230        15  POPC      C3             21.4349484600       43.8720892097       58.5359233218  MEMB      9               0.0000000000
      1231        15  POPC      HX             20.7196076221       43.6234353337       59.3463076092  MEMB      9               0.0000000000
      1232        15  POPC      HY             21.2626591344       43.1299875086       57.7272260057  MEMB      9               0.0000000000
      1233        15  POPC      O31            21.2001358892       45.2325173082       58.1165962239  MEMB      9               0.0000000000
      1234        15  POPC      C31            21.5758163603       45.4805996573       56.8591973042  MEMB      9               0.0000000000
      1235        15  POPC      O32            21.4711172952       44.7067831664       55.9269454005  MEMB      9               0.0000000000
      1236        15  POPC      C32            22.2579644732       46.8444777724       56.7953617165  MEMB      9               0.0000000000
      1237        15  POPC      H2X            22.4496915818       47.2385192414       57.8143638261  MEMB      9               0.0000000000
      1238        15  POPC      H2Y            21.5514895760       47.5439407484       56.3074520503  MEMB      9               0.0000000000
      1239        15  POPC      C23            24.2386842427       42.8488543477       54.8087433296  MEMB      9               0.0000000000
      1240        15  POPC      H3R            25.0914954973       43.0721903025       54.1237931983  MEMB      9               0.0000000000
      1241        15  POPC      H3S            23.5938908571       43.7544063761       54.8161779464  MEMB      9               0.0000000000
      1242        15  POPC      C24            23.4657233792       41.6613671002       54.2148055283  MEMB      9               0.0000000000
      1243        15  POPC      H4R            22.3977995372       41.7154920599       54.5279758195  MEMB      9               0.0000000000
      1244        15  POPC      H4S            23.8758574475       40.7037197957       54.6093573748  MEMB      9               0.0000000000
      1245        15  POPC      C25            23.5558100819       41.6221283219       52.6814599334  MEMB      9               0.0000000000
      1246        15  POPC      H5R            23.0342221637       40.7154915176       52.2977221749  MEMB      9               0.0000000000
      1247        15  POPC      H5S            24.6279507064       41.5440297546       52.3915802030  MEMB      9               0.0000000000
      1248        15  POPC      C26            22.9396701188       42.8542091492       52.0043365182  MEMB      9               0.0000000000
      1249        15  POPC      H6R            23.1507733227       43.7801500605       52.5820805771  MEMB      9               0.0000000000
      1250        15  POPC      H6S            21.8357441804       42.7226812923       52.0012877418  MEMB      9               0.0000000000
      1251        15  POPC      C27            23.4446107383       43.0545327315       50.5664980674  MEMB      9               0.0000000000
      1252        15  POPC      H7R            23.6671369470       42.0587883263       50.1210994825  MEMB      9               0.0000000000
      1253        15  POPC      H7S            24.4011119448       43.6232551428       50.5881243989  MEMB      9               0.0000000000
      1254        15  POPC      C28            22.4223381692       43.7582220712       49.6596707938  MEMB      9               0.0000000000
      1255        15  POPC      H8R            21.5147838259       43.1258746677       49.5968408563  MEMB      9               0.0000000000
      1256        15  POPC      H8S            22.8433910296       43.8114520328       48.6300960430  MEMB      9               0.0000000000
      1257        15  POPC      C29            22.0359661507       45.1251902216       50.1509087514  MEMB      9               0.0000000000
      1258        15  POPC      H91            22.5383374744       45.4744337471       51.0672093020  MEMB      9               0.0000000000
      1259        15  POPC      C210           21.1138660420       45.9020780915       49.5635891070  MEMB      9               0.0000000000
      1260        15  POPC      H101           20.9437903108       46.9103933834       49.9520744724  MEMB      9               0.0000000000
      1261        15  POPC      C211           20.3217737939       45.5495522751       48.3331856295  MEMB      9               0.0000000000
      1262        15  POPC      H11R           19.3544799455       46.0986172382       48.3279842047  MEMB      9               0.0000000000
      1263        15  POPC      H11S           20.0774676036       44.4641571971       48.2959493286  MEMB      9               0.0000000000
      1264        15  POPC      C212           21.1304002217       45.9248979666       47.0841124721  MEMB      9               0.0000000000
      1265        15  POPC      H12R           22.1026306903       45.3813190651       47.0987294456  MEMB      9               0.0000000000
      1266        15  POPC      H12S           21.3571838628       47.0145260276       47.1008422382  MEMB      9               0.0000000000
      1267        15  POPC      C213           20.4045053689       45.5881158081       45.7763192536  MEMB      9               0.0000000000
      1268        15  POPC      H13R           19.3667944759       45.9903711473       45.8229418443  MEMB      9               0.0000000000
      1269        15  POPC      H13S           20.3321532552       44.4826975750       45.6802882897  MEMB      9               0.0000000000
      1270        15  POPC      C214           21.0998224472       46.1730222319       44.5359723930  MEMB      9               0.0000000000
      1271        15  POPC      H14R           20.9989475751       47.2789904014       44.5785689417  MEMB      9               0.0000000000
      1272        15  POPC      H14S           20.5717265676       45.8252908349       43.6208974106  MEMB      9               0.0000000000
      1273        15  POPC      C215           22.5970917657       45.8432600031       44.4260453429  MEMB      9               0.0000000000
      1274        15  POPC      H15R           22.7386625841       44.7399296991       44.4086207131  MEMB      9               0.0000000000
      1275        15  POPC      H15S           23.1262895951       46.2326387281       45.3230772769  MEMB      9               0.0000000000
      1276        15  POPC      C216           23.2366430067       46.4736442468       43.1787710222  MEMB      9               0.0000000000
      1277        15  POPC      H16R           22.9549470857       47.5480089770       43.1170672180  MEMB      9               0.0000000000
      1278        15  POPC      H16S           22.8153450010       45.9691991951       42.2810217778  MEMB      9               0.0000000000
      1279        15  POPC      C217           24.7682471244       46.3626718155       43.1574659167  MEMB      9               0.0000000000
      1280        15  POPC      H17R           25.1252134699       46.5177139306       42.1149240919  MEMB      9               0.0000000000
      1281        15  POPC      H17S           25.0515950122       45.3278291128       43.4526446072  MEMB      9               0.0000000000
      1282        15  POPC      C218           25.4827022970       47.3831066734       44.0501085188  MEMB      9               0.0000000000
      1283        15  POPC      H18R           25.1898806123       47.2484367033       45.1131444895  MEMB      9               0.0000000000
      1284        15  POPC      H18S           25.2219493012       48.4170541869       43.7366117379  MEMB      9               0.0000000000
      1285        15  POPC      H18T           26.5840912348       47.2575679156       43.9711148803  MEMB      9               0.0000000000
      1286        15  POPC      C33            23.5837297759       46.7840985333       55.9906283331  MEMB      9               0.0000000000
      1287        15  POPC      H3X            23.5849514621       45.9306417698       55.2758782412  MEMB      9               0.0000000000
      1288        15  POPC      H3Y            24.4426581056       46.6395858379       56.6828848617  MEMB      9               0.0000000000
      1289        15  POPC      C34            23.7580794756       48.0607994795       55.1643953142  MEMB      9               0.0000000000
      1290        15  POPC      H4X            23.7172474909       48.9264327741       55.8644633861  MEMB      9               0.0000000000
      1291        15  POPC      H4Y            22.8853304588       48.1312419875       54.4852892207  MEMB      9               0.0000000000
      1292        15  POPC      C35            25.0485616904       48.1543048006       54.3350047927  MEMB      9               0.0000000000
      1293        15  POPC      H5X            25.9325458493       47.9047137134       54.9615393616  MEMB      9               0.0000000000
      1294        15  POPC      H5Y            25.1520689917       49.2234721527       54.0292770877  MEMB      9               0.0000000000
      1295        15  POPC      C36            25.0552500817       47.3140116720       53.0439902554  MEMB      9               0.0000000000
      1296        15  POPC      H6X            24.0149501389       47.2066824360       52.6601166367  MEMB      9               0.0000000000
      1297        15  POPC      H6Y            25.4401344362       46.2932446277       53.2546077272  MEMB      9               0.0000000000
      1298        15  POPC      C37            25.8922338773       47.9878677336       51.9442463977  MEMB      9               0.0000000000
      1299        15  POPC      H7X            26.8967203755       48.2450142894       52.3468913645  MEMB      9               0.0000000000
      1300        15  POPC      H7Y            25.3934263377       48.9495599811       51.6859972934  MEMB      9               0.0000000000
      1301        15  POPC      C38            26.0531769834       47.1649300272       50.6539773190  MEMB      9               0.0000000000
      1302        15  POPC      H8X            26.1625781967       47.8863410586       49.8098550368  MEMB      9               0.0000000000
      1303        15  POPC      H8Y            25.1494996800       46.5522769585       50.4559397361  MEMB      9               0.0000000000
      1304        15  POPC      C39            27.3218932057       46.3013503046       50.6739067951  MEMB      9               0.0000000000
      1305        15  POPC      H9X            27.2320200933       45.4757876924       51.4104955288  MEMB      9               0.0000000000
      1306        15  POPC      H9Y            28.1292305604       46.9714838950       51.0287179786  MEMB      9               0.0000000000
      1307        15  POPC      C310           27.7469836093       45.7659755057       49.2989335627  MEMB      9               0.0000000000
      1308        15  POPC      H10X           28.8546415106       45.6431529349       49.2917506729  MEMB      9               0.0000000000
      1309        15  POPC      H10Y           27.4943069151       46.5100399760       48.5122419472  MEMB      9               0.0000000000
      1310        15  POPC      C311           27.1406522707       44.3982210151       48.9743838093  MEMB      9               0.0000000000
      1311        15  POPC      H11X           26.0301188520       44.4605272300       48.9987139496  MEMB      9               0.0000000000
      1312        15  POPC      H11Y           27.4587478200       43.6787475101       49.7640139009  MEMB      9               0.0000000000
      1313        15  POPC      C312           27.5857232628       43.8512918182       47.6112432580  MEMB      9               0.0000000000
      1314        15  POPC      H12X           27.2580796512       42.7885428431       47.5544771683  MEMB      9               0.0000000000
      1315        15  POPC      H12Y           28.6965551176       43.8593511871       47.5399192064  MEMB      9               0.0000000000
      1316        15  POPC      C313           26.9907524450       44.6340959183       46.4306107607  MEMB      9               0.0000000000
      1317        15  POPC      H13X           27.4404077928       45.6521584523       46.4038771285  MEMB      9               0.0000000000
      1318        15  POPC      H13Y           25.8935408377       44.7525756036       46.5838975352  MEMB      9               0.0000000000
      1319        15  POPC      C314           27.2240508250       43.9510247344       45.0759093014  MEMB      9               0.0000000000
      1320        15  POPC      H14X           28.3073239599       43.7361005118       44.9686247184  MEMB      9               0.0000000000
      1321        15  POPC      H14Y           26.9392636861       44.6524889398       44.2609910317  MEMB      9               0.0000000000
      1322        15  POPC      C315           26.4030395036       42.6624425567       44.9283729408  MEMB      9               0.0000000000
      1323        15  POPC      H15X           25.3474114831       42.8996134490       45.1953916306  MEMB      9               0.0000000000
      1324        15  POPC      H15Y           26.7795100534       41.9208910204       45.6683263811  MEMB      9               0.0000000000
      1325        15  POPC      C316           26.4230381188       42.0163486276       43.5386482803  MEMB      9               0.0000000000
      1326        15  POPC      H16X           26.4837395539       42.7940140539       42.7480323937  MEMB      9               0.0000000000
      1327        15  POPC      H16Y           25.5073184331       41.4122315145       43.3683436135  MEMB      9               0.0000000000
      1328        15  POPC      H16Z           27.2997784021       41.3386214305       43.4384686362  MEMB      9               0.0000000000
      1329        16  POPC      N              32.4808149247       47.9548351556       61.9530561112  MEMB      10              0.0000000000
      1330        16  POPC      C12            33.8323685523       48.6400681675       61.7893217198  MEMB      10              0.0000000000
      1331        16  POPC      H12A           34.4513146944       48.4944272932       62.6780771110  MEMB      10              0.0000000000
      1332        16  POPC      H12B           33.6881267337       49.7036242778       61.6675255871  MEMB      10              0.0000000000
      1333        16  POPC      C13            32.6530235637       46.6870761922       62.7500674664  MEMB      10              0.0000000000
      1334        16  POPC      H13A           33.4245538467       46.0690460094       62.2845096137  MEMB      10              0.0000000000
      1335        16  POPC      H13B           33.0179732405       46.8635964715       63.7492554830  MEMB      10              0.0000000000
      1336        16  POPC      H13C           31.7300550970       46.1216739450       62.8212677217  MEMB      10              0.0000000000
      1337        16  POPC      C14            31.5020209885       48.8616685337       62.6194739666  MEMB      10              0.0000000000
      1338        16  POPC      H14A           31.2546400146       49.7086153109       61.9754053500  MEMB      10              0.0000000000
      1339        16  POPC      H14B           30.5909553701       48.2991148066       62.8179033019  MEMB      10              0.0000000000
      1340        16  POPC      H14C           31.8822393023       49.2462297796       63.5607368167  MEMB      10              0.0000000000
      1341        16  POPC      C15            31.9323931441       47.5517909595       60.6097450330  MEMB      10              0.0000000000
      1342        16  POPC      H15A           31.8703191194       48.3919610132       59.9325971973  MEMB      10              0.0000000000
      1343        16  POPC      H15B           30.9567650463       47.0877839518       60.6873922529  MEMB      10              0.0000000000
      1344        16  POPC      H15C           32.6285951091       46.8362512174       60.1649100377  MEMB      10              0.0000000000
      1345        16  POPC      C11            34.7022485491       48.1425241633       60.6283491811  MEMB      10              0.0000000000
      1346        16  POPC      H11A           35.5811963303       48.8275062579       60.5039209318  MEMB      10              0.0000000000
      1347        16  POPC      H11B           34.1530659563       48.2044730419       59.6710639588  MEMB      10              0.0000000000
      1348        16  POPC      P              36.5096584888       46.4801011512       61.4871201589  MEMB      10              0.0000000000
      1349        16  POPC      O13            36.3440507244       45.2948237841       62.3486157536  MEMB      10              0.0000000000
      1350        16  POPC      O14            36.9132607747       47.7142445857       62.1862241819  MEMB      10              0.0000000000
      1351        16  POPC      O12            35.0702940331       46.7871561582       60.8705573283  MEMB      10              0.0000000000
      1352        16  POPC      O11            37.4174917688       46.1895963694       60.2339913470  MEMB      10              0.0000000000
      1353        16  POPC      C1             37.1203088339       45.1821920865       59.2738019690  MEMB      10              0.0000000000
      1354        16  POPC      HA             36.2799754907       44.5299548565       59.5889047004  MEMB      10              0.0000000000
      1355        16  POPC      HB             38.0152163398       44.5311364195       59.2069317495  MEMB      10              0.0000000000
      1356        16  POPC      C2             36.8074155756       45.7979592791       57.8809205131  MEMB      10              0.0000000000
      1357        16  POPC      HS             37.7775867808       46.2295794765       57.5405415149  MEMB      10              0.0000000000
      1358        16  POPC      O21            35.7745764666       46.7692987893       57.9867128182  MEMB      10              0.0000000000
      1359        16  POPC      C21            36.1882500429       47.9998410680       57.9208465421  MEMB      10              0.0000000000
      1360        16  POPC      O22            37.2375409348       48.4824287843       58.2970889471  MEMB      10              0.0000000000
      1361        16  POPC      C22            35.1328168406       48.7408790958       57.0905817274  MEMB      10              0.0000000000
      1362        16  POPC      H2R            34.2296166940       48.8682522518       57.7121762432  MEMB      10              0.0000000000
      1363        16  POPC      H2S            34.8667786707       48.1010293329       56.2224542336  MEMB      10              0.0000000000
      1364        16  POPC      C3             36.2888487207       44.8131526281       56.7808713307  MEMB      10              0.0000000000
      1365        16  POPC      HX             35.3568901313       44.3610474859       57.1915979434  MEMB      10              0.0000000000
      1366        16  POPC      HY             37.0069346729       43.9832335737       56.6710205040  MEMB      10              0.0000000000
      1367        16  POPC      O31            35.9679412991       45.3424946609       55.4630503335  MEMB      10              0.0000000000
      1368        16  POPC      C31            36.7373844452       46.2445164089       54.8904524003  MEMB      10              0.0000000000
      1369        16  POPC      O32            37.5449080027       46.9875002054       55.4057654907  MEMB      10              0.0000000000
      1370        16  POPC      C32            36.5600668836       46.1840094380       53.3830879804  MEMB      10              0.0000000000
      1371        16  POPC      H2X            35.7237650786       46.8460489610       53.0982375513  MEMB      10              0.0000000000
      1372        16  POPC      H2Y            36.3233756076       45.1377088724       53.1007189612  MEMB      10              0.0000000000
      1373        16  POPC      C23            35.6309610476       50.1001592617       56.5542858836  MEMB      10              0.0000000000
      1374        16  POPC      H3R            36.4007481631       49.9266084420       55.7692085099  MEMB      10              0.0000000000
      1375        16  POPC      H3S            36.1166862742       50.6707514214       57.3800635929  MEMB      10              0.0000000000
      1376        16  POPC      C24            34.4764542271       50.9455731458       56.0108475493  MEMB      10              0.0000000000
      1377        16  POPC      H4R            34.4202281400       51.8357275555       56.6652573583  MEMB      10              0.0000000000
      1378        16  POPC      H4S            33.5213297213       50.3782003113       56.1092751968  MEMB      10              0.0000000000
      1379        16  POPC      C25            34.5863726295       51.4146151422       54.5486358725  MEMB      10              0.0000000000
      1380        16  POPC      H5R            35.4588347935       52.0816668139       54.4029981706  MEMB      10              0.0000000000
      1381        16  POPC      H5S            33.6811247107       52.0272410841       54.3253848173  MEMB      10              0.0000000000
      1382        16  POPC      C26            34.6576795216       50.2628521751       53.5388437793  MEMB      10              0.0000000000
      1383        16  POPC      H6R            34.3277370707       49.3391019289       54.0624057628  MEMB      10              0.0000000000
      1384        16  POPC      H6S            35.7105342570       50.1072626683       53.2142600294  MEMB      10              0.0000000000
      1385        16  POPC      C27            33.7511500735       50.4917724652       52.3242514944  MEMB      10              0.0000000000
      1386        16  POPC      H7R            34.1329050744       51.3541914144       51.7313591241  MEMB      10              0.0000000000
      1387        16  POPC      H7S            32.7281405942       50.7620847272       52.6731061303  MEMB      10              0.0000000000
      1388        16  POPC      C28            33.6372588450       49.2822168813       51.3843577313  MEMB      10              0.0000000000
      1389        16  POPC      H8R            34.6163616885       49.0985065700       50.9026580078  MEMB      10              0.0000000000
      1390        16  POPC      H8S            32.9494377528       49.5985402357       50.5710075805  MEMB      10              0.0000000000
      1391        16  POPC      C29            33.1738141509       48.0076305198       52.0435534792  MEMB      10              0.0000000000
      1392        16  POPC      H91            33.8559191347       47.5969330435       52.7972634501  MEMB      10              0.0000000000
      1393        16  POPC      C210           32.0140820411       47.3757282217       51.8227258506  MEMB      10              0.0000000000
      1394        16  POPC      H101           31.7878344646       46.4501289876       52.3752143950  MEMB      10              0.0000000000
      1395        16  POPC      C211           30.9470926099       47.8289918533       50.8697431581  MEMB      10              0.0000000000
      1396        16  POPC      H11R           30.8454021137       48.9365980804       50.8713384594  MEMB      10              0.0000000000
      1397        16  POPC      H11S           29.9939782893       47.4396616002       51.2662086437  MEMB      10              0.0000000000
      1398        16  POPC      C212           31.0964306797       47.3405199999       49.4151203556  MEMB      10              0.0000000000
      1399        16  POPC      H12R           30.1369575612       47.5374219170       48.8829884450  MEMB      10              0.0000000000
      1400        16  POPC      H12S           31.2568399200       46.2408263550       49.4197502752  MEMB      10              0.0000000000
      1401        16  POPC      C213           32.2118718212       48.0391081750       48.6211022525  MEMB      10              0.0000000000
      1402        16  POPC      H13R           33.1903791586       47.8154805913       49.1011084602  MEMB      10              0.0000000000
      1403        16  POPC      H13S           32.0547202011       49.1405824157       48.6600072192  MEMB      10              0.0000000000
      1404        16  POPC      C214           32.2872851926       47.6204565732       47.1484915481  MEMB      10              0.0000000000
      1405        16  POPC      H14R           33.1819744578       48.0954713975       46.6880818193  MEMB      10              0.0000000000
      1406        16  POPC      H14S           31.3933615185       48.0125641359       46.6139606076  MEMB      10              0.0000000000
      1407        16  POPC      C215           32.3645779225       46.1011866698       46.9609903583  MEMB      10              0.0000000000
      1408        16  POPC      H15R           31.4377554498       45.6448254850       47.3743096868  MEMB      10              0.0000000000
      1409        16  POPC      H15S           33.2299204806       45.6960097390       47.5335672310  MEMB      10              0.0000000000
      1410        16  POPC      C216           32.4612739986       45.6981696152       45.4877118860  MEMB      10              0.0000000000
      1411        16  POPC      H16R           32.0233693216       46.5087066294       44.8618203427  MEMB      10              0.0000000000
      1412        16  POPC      H16S           31.8610708823       44.7766371627       45.3117133352  MEMB      10              0.0000000000
      1413        16  POPC      C217           33.8985246342       45.4220606133       45.0461138749  MEMB      10              0.0000000000
      1414        16  POPC      H17R           34.1709639460       44.3820527253       45.3305363356  MEMB      10              0.0000000000
      1415        16  POPC      H17S           34.5802493181       46.0891190353       45.6146913217  MEMB      10              0.0000000000
      1416        16  POPC      C218           34.0883585575       45.6322023754       43.5437514789  MEMB      10              0.0000000000
      1417        16  POPC      H18R           33.2969872138       45.0880508182       42.9826616565  MEMB      10              0.0000000000
      1418        16  POPC      H18S           35.0862652635       45.2672900121       43.2131497950  MEMB      10              0.0000000000
      1419        16  POPC      H18T           33.9977292862       46.7124838872       43.2911181651  MEMB      10              0.0000000000
      1420        16  POPC      C33            37.8688256894       46.6458248722       52.7006593442  MEMB      10              0.0000000000
      1421        16  POPC      H3X            38.7325380665       46.1427332964       53.1971002837  MEMB      10              0.0000000000
      1422        16  POPC      H3Y            38.0308956534       47.7346506008       52.8558274477  MEMB      10              0.0000000000
      1423        16  POPC      C34            37.9405911575       46.2874973460       51.2114144368  MEMB      10              0.0000000000
      1424        16  POPC      H4X            37.6172529439       45.2343977725       51.0841359933  MEMB      10              0.0000000000
      1425        16  POPC      H4Y            39.0063934967       46.3582619538       50.8926027326  MEMB      10              0.0000000000
      1426        16  POPC      C35            37.0864381625       47.1440558472       50.2693689997  MEMB      10              0.0000000000
      1427        16  POPC      H5X            36.0087774520       46.8982969493       50.4026204460  MEMB      10              0.0000000000
      1428        16  POPC      H5Y            37.3650823840       46.8680375994       49.2261537775  MEMB      10              0.0000000000
      1429        16  POPC      C36            37.2717500838       48.6547949156       50.4450554972  MEMB      10              0.0000000000
      1430        16  POPC      H6X            38.3503785458       48.8931309435       50.5826589701  MEMB      10              0.0000000000
      1431        16  POPC      H6Y            36.7533661177       48.9755542746       51.3755023704  MEMB      10              0.0000000000
      1432        16  POPC      C37            36.7168901788       49.4404190152       49.2436064981  MEMB      10              0.0000000000
      1433        16  POPC      H7X            36.5290004467       50.4866307972       49.5803285066  MEMB      10              0.0000000000
      1434        16  POPC      H7Y            35.7458140322       49.0146932920       48.9167979958  MEMB      10              0.0000000000
      1435        16  POPC      C38            37.7186898748       49.4978247772       48.0836168912  MEMB      10              0.0000000000
      1436        16  POPC      H8X            38.6787171964       49.1253143575       48.4993123610  MEMB      10              0.0000000000
      1437        16  POPC      H8Y            37.8572454107       50.5576230412       47.7677390165  MEMB      10              0.0000000000
      1438        16  POPC      C39            37.4315609638       48.6535959376       46.8334515783  MEMB      10              0.0000000000
      1439        16  POPC      H9X            37.4745836525       47.5714320938       47.0827989577  MEMB      10              0.0000000000
      1440        16  POPC      H9Y            38.2568081719       48.8565685579       46.1128886227  MEMB      10              0.0000000000
      1441        16  POPC      C310           36.0921942296       48.9507579166       46.1537431768  MEMB      10              0.0000000000
      1442        16  POPC      H10X           35.9482100891       50.0454384255       46.0389574910  MEMB      10              0.0000000000
      1443        16  POPC      H10Y           35.2787777044       48.5750758087       46.8137789296  MEMB      10              0.0000000000
      1444        16  POPC      C311           35.9614720056       48.2642351513       44.7863458025  MEMB      10              0.0000000000
      1445        16  POPC      H11X           34.9119305964       48.3687188930       44.4330864892  MEMB      10              0.0000000000
      1446        16  POPC      H11Y           36.1673045465       47.1794704504       44.9175278326  MEMB      10              0.0000000000
      1447        16  POPC      C312           36.9165669503       48.7652087413       43.6964622040  MEMB      10              0.0000000000
      1448        16  POPC      H12X           36.7697299997       48.1355198111       42.7888558677  MEMB      10              0.0000000000
      1449        16  POPC      H12Y           37.9654780144       48.6186832167       44.0320672564  MEMB      10              0.0000000000
      1450        16  POPC      C313           36.7325086930       50.2346990197       43.3113712478  MEMB      10              0.0000000000
      1451        16  POPC      H13X           37.4496139213       50.4841316094       42.5008688782  MEMB      10              0.0000000000
      1452        16  POPC      H13Y           37.0074015673       50.8583985370       44.1846816581  MEMB      10              0.0000000000
      1453        16  POPC      C314           35.3162873712       50.5873283875       42.8388221193  MEMB      10              0.0000000000
      1454        16  POPC      H14X           35.2807142201       51.6696811537       42.6469808338  MEMB      10              0.0000000000
      1455        16  POPC      H14Y           34.5704236019       50.3679917696       43.6324032557  MEMB      10              0.0000000000
      1456        16  POPC      C315           34.9228343770       49.9015461740       41.5303104108  MEMB      10              0.0000000000
      1457        16  POPC      H15X           34.8900921291       48.8089462417       41.7172089289  MEMB      10              0.0000000000
      1458        16  POPC      H15Y           35.7186209676       50.1044380877       40.7768164569  MEMB      10              0.0000000000
      1459        16  POPC      C316           33.5732680136       50.3556938864       40.9714157616  MEMB      10              0.0000000000
      1460        16  POPC      H16X           32.8105429442       50.3937143392       41.7775237605  MEMB      10              0.0000000000
      1461        16  POPC      H16Y           33.2180680537       49.6524294914       40.1876449179  MEMB      10              0.0000000000
      1462        16  POPC      H16Z           33.6594984231       51.3684492055       40.5230077351  MEMB      10              0.0000000000
      1463        17  POPC      N              48.5907075931       33.9947587878       60.0200531591  MEMB      11              0.0000000000
      1464        17  POPC      C12            47.9311452641       33.1735184576       61.1258023617  MEMB      11              0.0000000000
      1465        17  POPC      H12A           48.6315439743       33.0977091171       61.9590223651  MEMB      11              0.0000000000
      1466        17  POPC      H12B           47.7755999004       32.1608876387       60.7671723435  MEMB      11              0.0000000000
      1467        17  POPC      C13            49.0999758975       35.2713829065       60.6094705465  MEMB      11              0.0000000000
      1468        17  POPC      H13A           49.7306066300       35.8126317968       59.9253768743  MEMB      11              0.0000000000
      1469        17  POPC      H13B           48.2526316152       35.8817189666       60.9142821512  MEMB      11              0.0000000000
      1470        17  POPC      H13C           49.6595472244       35.0682542474       61.5170681953  MEMB      11              0.0000000000
      1471        17  POPC      C14            49.7453929366       33.2292983954       59.5081830404  MEMB      11              0.0000000000
      1472        17  POPC      H14A           49.4390464436       32.2359264433       59.1890842745  MEMB      11              0.0000000000
      1473        17  POPC      H14B           50.2818382615       33.7193118590       58.7146354091  MEMB      11              0.0000000000
      1474        17  POPC      H14C           50.4812801225       33.0285181725       60.2954900744  MEMB      11              0.0000000000
      1475        17  POPC      C15            47.6589532028       34.2910284092       58.8823802945  MEMB      11              0.0000000000
      1476        17  POPC      H15A           46.7732401603       34.7828826518       59.2705809469  MEMB      11              0.0000000000
      1477        17  POPC      H15B           47.3698038675       33.3821843399       58.3628632477  MEMB      11              0.0000000000
      1478        17  POPC      H15C           48.1333400549       34.9546199970       58.1664879492  MEMB      11              0.0000000000
      1479        17  POPC      C11            46.5942797497       33.6721691008       61.7211488396  MEMB      11              0.0000000000
      1480        17  POPC      H11A           46.2781618081       32.9437178527       62.5082892613  MEMB      11              0.0000000000
      1481        17  POPC      H11B           45.8167264232       33.6285821959       60.9294166720  MEMB      11              0.0000000000
      1482        17  POPC      P              46.8769812309       35.3207436253       63.7507617712  MEMB      11              0.0000000000
      1483        17  POPC      O13            48.2657429229       35.0354853590       64.1757334829  MEMB      11              0.0000000000
      1484        17  POPC      O14            45.7638245793       34.6718841655       64.4988622433  MEMB      11              0.0000000000
      1485        17  POPC      O12            46.6982010097       35.0070667571       62.2087750522  MEMB      11              0.0000000000
      1486        17  POPC      O11            46.7190710779       36.8699839266       63.8873413132  MEMB      11              0.0000000000
      1487        17  POPC      C1             46.9328692073       37.8028865283       62.8349833109  MEMB      11              0.0000000000
      1488        17  POPC      HA             47.5895445220       37.3986896866       62.0332569018  MEMB      11              0.0000000000
      1489        17  POPC      HB             47.4426588008       38.6955909478       63.2550961303  MEMB      11              0.0000000000
      1490        17  POPC      C2             45.6002191629       38.2693380989       62.1949760978  MEMB      11              0.0000000000
      1491        17  POPC      HS             44.9421973260       38.6572512317       63.0061238480  MEMB      11              0.0000000000
      1492        17  POPC      O21            45.0084675140       37.1612914664       61.5218829900  MEMB      11              0.0000000000
      1493        17  POPC      C21            43.8419634626       36.6931878834       61.8938448747  MEMB      11              0.0000000000
      1494        17  POPC      O22            43.1757521686       37.0480760851       62.8551938762  MEMB      11              0.0000000000
      1495        17  POPC      C22            43.4875289886       35.5533721227       60.9272152898  MEMB      11              0.0000000000
      1496        17  POPC      H2R            42.4204069973       35.6604360654       60.6583180352  MEMB      11              0.0000000000
      1497        17  POPC      H2S            43.6218250941       34.6199414165       61.5188058260  MEMB      11              0.0000000000
      1498        17  POPC      C3             45.8477242624       39.4167338951       61.1646054033  MEMB      11              0.0000000000
      1499        17  POPC      HX             46.4381435795       40.2345018282       61.6316767347  MEMB      11              0.0000000000
      1500        17  POPC      HY             44.8659038418       39.8640962315       60.9203101429  MEMB      11              0.0000000000
      1501        17  POPC      O31            46.4280710450       38.9618693596       59.9231730592  MEMB      11              0.0000000000
      1502        17  POPC      C31            47.7258370012       39.1018098898       59.7533258990  MEMB      11              0.0000000000
      1503        17  POPC      O32            48.5428897239       39.3703026529       60.6208720829  MEMB      11              0.0000000000
      1504        17  POPC      C32            48.0559373666       38.6370583076       58.3268135778  MEMB      11              0.0000000000
      1505        17  POPC      H2X            47.4723471148       39.2660993677       57.6259050214  MEMB      11              0.0000000000
      1506        17  POPC      H2Y            47.6997331747       37.5909782848       58.2530629599  MEMB      11              0.0000000000
      1507        17  POPC      C23            44.3885204084       35.4575513314       59.6574695282  MEMB      11              0.0000000000
      1508        17  POPC      H3R            44.4323365381       34.3693506946       59.4056318976  MEMB      11              0.0000000000
      1509        17  POPC      H3S            45.4351082884       35.7711706261       59.8433995179  MEMB      11              0.0000000000
      1510        17  POPC      C24            43.8296413606       36.1498972058       58.4092860094  MEMB      11              0.0000000000
      1511        17  POPC      H4R            42.7760525077       36.4529229441       58.5768512473  MEMB      11              0.0000000000
      1512        17  POPC      H4S            43.8193537487       35.3350592553       57.6547271597  MEMB      11              0.0000000000
      1513        17  POPC      C25            44.6378082000       37.2897745931       57.7544556901  MEMB      11              0.0000000000
      1514        17  POPC      H5R            45.7165702467       37.1271889474       57.9381026389  MEMB      11              0.0000000000
      1515        17  POPC      H5S            44.3587112530       38.2628141877       58.2165822629  MEMB      11              0.0000000000
      1516        17  POPC      C26            44.3738218213       37.2734428535       56.2344401504  MEMB      11              0.0000000000
      1517        17  POPC      H6R            43.2702683601       37.3119747027       56.0793259806  MEMB      11              0.0000000000
      1518        17  POPC      H6S            44.7505068246       36.3043719727       55.8414795118  MEMB      11              0.0000000000
      1519        17  POPC      C27            44.9920659534       38.3695258249       55.3562718263  MEMB      11              0.0000000000
      1520        17  POPC      H7R            46.0963945491       38.3974535909       55.4718759246  MEMB      11              0.0000000000
      1521        17  POPC      H7S            44.5943588122       39.3555992905       55.6930282714  MEMB      11              0.0000000000
      1522        17  POPC      C28            44.6152384066       38.1799700967       53.8616007398  MEMB      11              0.0000000000
      1523        17  POPC      H8R            44.8683179760       39.1185407586       53.3200712911  MEMB      11              0.0000000000
      1524        17  POPC      H8S            43.5111286835       38.0666979261       53.8118155302  MEMB      11              0.0000000000
      1525        17  POPC      C29            45.2829615402       37.0180768825       53.1650132650  MEMB      11              0.0000000000
      1526        17  POPC      H91            46.2755214928       36.7558051367       53.5610770549  MEMB      11              0.0000000000
      1527        17  POPC      C210           44.8221518244       36.3526896458       52.0842396611  MEMB      11              0.0000000000
      1528        17  POPC      H101           45.4314547766       35.5341831617       51.6701980902  MEMB      11              0.0000000000
      1529        17  POPC      C211           43.5403940337       36.6198760345       51.3297674119  MEMB      11              0.0000000000
      1530        17  POPC      H11R           42.7331816592       36.9324652499       52.0306617379  MEMB      11              0.0000000000
      1531        17  POPC      H11S           43.1778779796       35.6899399332       50.8371086536  MEMB      11              0.0000000000
      1532        17  POPC      C212           43.6839234089       37.7303888731       50.2634646598  MEMB      11              0.0000000000
      1533        17  POPC      H12R           44.0208402589       38.6604687677       50.7705665936  MEMB      11              0.0000000000
      1534        17  POPC      H12S           42.6793133033       37.9470284643       49.8365235797  MEMB      11              0.0000000000
      1535        17  POPC      C213           44.6365930394       37.4158035570       49.0987047831  MEMB      11              0.0000000000
      1536        17  POPC      H13R           44.2058413623       36.5967371643       48.4805051891  MEMB      11              0.0000000000
      1537        17  POPC      H13S           45.6086962178       37.0539569283       49.4989481767  MEMB      11              0.0000000000
      1538        17  POPC      C214           44.9050668202       38.6461136279       48.2099216145  MEMB      11              0.0000000000
      1539        17  POPC      H14R           45.3981803357       39.4405432860       48.8102209682  MEMB      11              0.0000000000
      1540        17  POPC      H14S           43.9324940812       39.0527391015       47.8615593891  MEMB      11              0.0000000000
      1541        17  POPC      C215           45.7781602640       38.3106664878       46.9927467090  MEMB      11              0.0000000000
      1542        17  POPC      H15R           45.1655662540       37.6692357404       46.3200581415  MEMB      11              0.0000000000
      1543        17  POPC      H15S           46.6657124282       37.7277927839       47.3179852536  MEMB      11              0.0000000000
      1544        17  POPC      C216           46.2855069446       39.5175778964       46.1900022258  MEMB      11              0.0000000000
      1545        17  POPC      H16R           46.9981562460       40.1226237074       46.7859352193  MEMB      11              0.0000000000
      1546        17  POPC      H16S           45.4069159179       40.1619996405       45.9621451391  MEMB      11              0.0000000000
      1547        17  POPC      C217           46.9314179246       39.0910447497       44.8595010302  MEMB      11              0.0000000000
      1548        17  POPC      H17R           46.5113076143       39.7261533448       44.0532125176  MEMB      11              0.0000000000
      1549        17  POPC      H17S           46.6198441877       38.0444980305       44.6474949994  MEMB      11              0.0000000000
      1550        17  POPC      C218           48.4538201413       39.1846788841       44.7486688635  MEMB      11              0.0000000000
      1551        17  POPC      H18R           48.9427107693       38.6147849489       45.5650741986  MEMB      11              0.0000000000
      1552        17  POPC      H18S           48.7837652035       40.2436659980       44.7913896164  MEMB      11              0.0000000000
      1553        17  POPC      H18T           48.7981208040       38.7646591846       43.7783341561  MEMB      11              0.0000000000
      1554        17  POPC      C33            49.5588161135       38.6578047118       57.9668603332  MEMB      11              0.0000000000
      1555        17  POPC      H3X            50.1562864729       38.1701806120       58.7709740525  MEMB      11              0.0000000000
      1556        17  POPC      H3Y            49.8957180474       39.7164979518       57.9116874346  MEMB      11              0.0000000000
      1557        17  POPC      C34            49.8578444128       37.9308623426       56.6402690090  MEMB      11              0.0000000000
      1558        17  POPC      H4X            50.9088410667       38.1620818032       56.3508481859  MEMB      11              0.0000000000
      1559        17  POPC      H4Y            49.2016485700       38.3170629319       55.8280310629  MEMB      11              0.0000000000
      1560        17  POPC      C35            49.7205938651       36.4013481117       56.7455637502  MEMB      11              0.0000000000
      1561        17  POPC      H5X            48.6559892595       36.1129025711       56.6142516775  MEMB      11              0.0000000000
      1562        17  POPC      H5Y            50.0385646911       36.0965818086       57.7693020372  MEMB      11              0.0000000000
      1563        17  POPC      C36            50.6128691745       35.6239910778       55.7623434840  MEMB      11              0.0000000000
      1564        17  POPC      H6X            50.5434644091       34.5350289735       55.9836450546  MEMB      11              0.0000000000
      1565        17  POPC      H6Y            51.6707947471       35.9249760425       55.9490281540  MEMB      11              0.0000000000
      1566        17  POPC      C37            50.3051105642       35.8436709412       54.2703852930  MEMB      11              0.0000000000
      1567        17  POPC      H7X            51.1098344306       35.3388090838       53.6876819477  MEMB      11              0.0000000000
      1568        17  POPC      H7Y            50.3534009125       36.9297791259       54.0311871747  MEMB      11              0.0000000000
      1569        17  POPC      C38            48.9518000286       35.2728305798       53.8169201487  MEMB      11              0.0000000000
      1570        17  POPC      H8X            48.1443068390       35.8188698142       54.3558792881  MEMB      11              0.0000000000
      1571        17  POPC      H8Y            48.8814446760       34.1984624652       54.0923112182  MEMB      11              0.0000000000
      1572        17  POPC      C39            48.7067071009       35.4248728288       52.3053739512  MEMB      11              0.0000000000
      1573        17  POPC      H9X            48.8515017958       36.4951315571       52.0487350196  MEMB      11              0.0000000000
      1574        17  POPC      H9Y            47.6486397682       35.1682886194       52.0823735620  MEMB      11              0.0000000000
      1575        17  POPC      C310           49.6210387718       34.5772977461       51.4048290297  MEMB      11              0.0000000000
      1576        17  POPC      H10X           49.5720932432       33.5073541017       51.7040304225  MEMB      11              0.0000000000
      1577        17  POPC      H10Y           50.6719279942       34.9160144163       51.5526394503  MEMB      11              0.0000000000
      1578        17  POPC      C311           49.2831739837       34.7067139650       49.9080658211  MEMB      11              0.0000000000
      1579        17  POPC      H11X           50.2087098179       34.4982485956       49.3228520690  MEMB      11              0.0000000000
      1580        17  POPC      H11Y           48.9748041171       35.7492357112       49.6786245710  MEMB      11              0.0000000000
      1581        17  POPC      C312           48.2001020196       33.7245094847       49.4314628873  MEMB      11              0.0000000000
      1582        17  POPC      H12X           47.2521409489       33.8961797027       49.9844964234  MEMB      11              0.0000000000
      1583        17  POPC      H12Y           48.5539897079       32.6949230319       49.6702564877  MEMB      11              0.0000000000
      1584        17  POPC      C313           47.9483087326       33.8057312438       47.9166564689  MEMB      11              0.0000000000
      1585        17  POPC      H13X           47.5936512998       32.8231267204       47.5359284170  MEMB      11              0.0000000000
      1586        17  POPC      H13Y           48.9201252619       34.0143475107       47.4202366010  MEMB      11              0.0000000000
      1587        17  POPC      C314           46.9000137610       34.8578328246       47.5250412392  MEMB      11              0.0000000000
      1588        17  POPC      H14X           47.1907985188       35.8248517191       47.9895161978  MEMB      11              0.0000000000
      1589        17  POPC      H14Y           45.9130798059       34.5630257697       47.9494672651  MEMB      11              0.0000000000
      1590        17  POPC      C315           46.7585717510       35.0354203734       46.0047478440  MEMB      11              0.0000000000
      1591        17  POPC      H15X           45.9357434647       35.7535765628       45.7932130266  MEMB      11              0.0000000000
      1592        17  POPC      H15Y           46.4578680137       34.0652258666       45.5504960092  MEMB      11              0.0000000000
      1593        17  POPC      C316           48.0330162353       35.5336352483       45.3209916372  MEMB      11              0.0000000000
      1594        17  POPC      H16X           48.3666186847       36.4928891462       45.7714767821  MEMB      11              0.0000000000
      1595        17  POPC      H16Y           47.8628450498       35.6967625280       44.2378595090  MEMB      11              0.0000000000
      1596        17  POPC      H16Z           48.8495177412       34.7917194378       45.4287713998  MEMB      11              0.0000000000
      1597        18  POPC      N              45.2460591877       26.6867187732       63.8285788165  MEMB      12              0.0000000000
      1598        18  POPC      C12            45.9930221273       27.4259002238       62.7270448887  MEMB      12              0.0000000000
      1599        18  POPC      H12A           46.5486473323       28.2359191673       63.1626766003  MEMB      12              0.0000000000
      1600        18  POPC      H12B           45.2714775543       27.8646129601       62.0417600022  MEMB      12              0.0000000000
      1601        18  POPC      C13            44.4908816741       27.6220077995       64.6997661295  MEMB      12              0.0000000000
      1602        18  POPC      H13A           43.8465659382       28.2626343588       64.1157577457  MEMB      12              0.0000000000
      1603        18  POPC      H13B           43.8422072984       27.1131304103       65.4110388930  MEMB      12              0.0000000000
      1604        18  POPC      H13C           45.1668996605       28.2484755193       65.2668301535  MEMB      12              0.0000000000
      1605        18  POPC      C14            44.2652688307       25.7755474785       63.1722663664  MEMB      12              0.0000000000
      1606        18  POPC      H14A           43.8369499668       25.0248720190       63.8267808818  MEMB      12              0.0000000000
      1607        18  POPC      H14B           43.4640863887       26.3104750852       62.6861399758  MEMB      12              0.0000000000
      1608        18  POPC      H14C           44.7637208005       25.1974189992       62.3846233030  MEMB      12              0.0000000000
      1609        18  POPC      C15            46.2121456707       25.8819892660       64.6514559807  MEMB      12              0.0000000000
      1610        18  POPC      H15A           46.7737393185       25.2333523559       63.9799916401  MEMB      12              0.0000000000
      1611        18  POPC      H15B           45.6913523661       25.2397593591       65.3446068315  MEMB      12              0.0000000000
      1612        18  POPC      H15C           46.8886849566       26.5152914469       65.2115666659  MEMB      12              0.0000000000
      1613        18  POPC      C11            46.9759890491       26.6061736547       61.8546450021  MEMB      12              0.0000000000
      1614        18  POPC      H11A           47.7522381268       26.1093448790       62.4684858653  MEMB      12              0.0000000000
      1615        18  POPC      H11B           47.5355740944       27.3348327805       61.2158915794  MEMB      12              0.0000000000
      1616        18  POPC      P              46.2135533537       25.7661937734       59.5125861120  MEMB      12              0.0000000000
      1617        18  POPC      O13            45.0789538808       24.9826089464       58.9976378470  MEMB      12              0.0000000000
      1618        18  POPC      O14            47.5665867561       25.5258948531       58.9618652424  MEMB      12              0.0000000000
      1619        18  POPC      O12            46.2858704071       25.6140044497       61.0973604877  MEMB      12              0.0000000000
      1620        18  POPC      O11            45.8789691551       27.3137043806       59.4116287480  MEMB      12              0.0000000000
      1621        18  POPC      C1             44.5124349544       27.7191751328       59.2340736618  MEMB      12              0.0000000000
      1622        18  POPC      HA             44.3955040973       28.7566237503       59.6160752125  MEMB      12              0.0000000000
      1623        18  POPC      HB             43.7943133602       27.0793436630       59.8035304328  MEMB      12              0.0000000000
      1624        18  POPC      C2             44.1068594575       27.7189286569       57.7344691306  MEMB      12              0.0000000000
      1625        18  POPC      HS             44.0217248091       26.6453099615       57.4302929430  MEMB      12              0.0000000000
      1626        18  POPC      O21            45.1108222009       28.4504137489       56.9930570756  MEMB      12              0.0000000000
      1627        18  POPC      C21            45.7929016994       27.7340621116       56.1153030557  MEMB      12              0.0000000000
      1628        18  POPC      O22            45.5525974954       26.5966674957       55.7590092013  MEMB      12              0.0000000000
      1629        18  POPC      C22            46.9444295519       28.5686100366       55.5472573073  MEMB      12              0.0000000000
      1630        18  POPC      H2R            47.8832565778       28.1417186984       55.9599246930  MEMB      12              0.0000000000
      1631        18  POPC      H2S            46.8493245245       29.6196257526       55.8821284544  MEMB      12              0.0000000000
      1632        18  POPC      C3             42.7079282378       28.3681806842       57.5241854055  MEMB      12              0.0000000000
      1633        18  POPC      HX             42.7672840021       29.4242460498       57.8658348054  MEMB      12              0.0000000000
      1634        18  POPC      HY             41.9591421031       27.8622333649       58.1824014683  MEMB      12              0.0000000000
      1635        18  POPC      O31            42.3319822386       28.3618036248       56.1279887149  MEMB      12              0.0000000000
      1636        18  POPC      C31            41.8274112942       27.2110745745       55.7107518633  MEMB      12              0.0000000000
      1637        18  POPC      O32            41.4714268664       26.2950899843       56.4282080535  MEMB      12              0.0000000000
      1638        18  POPC      C32            41.7723274134       27.1740918896       54.1887857320  MEMB      12              0.0000000000
      1639        18  POPC      H2X            41.5146858106       28.1768167696       53.8088871176  MEMB      12              0.0000000000
      1640        18  POPC      H2Y            40.9308293259       26.4975245887       53.9347595923  MEMB      12              0.0000000000
      1641        18  POPC      C23            46.9495616527       28.4752394110       54.0041584437  MEMB      12              0.0000000000
      1642        18  POPC      H3R            46.0485397711       28.9930317819       53.6060832001  MEMB      12              0.0000000000
      1643        18  POPC      H3S            46.8782810608       27.4013021923       53.7051062799  MEMB      12              0.0000000000
      1644        18  POPC      C24            48.2136528118       29.0430283180       53.3467079585  MEMB      12              0.0000000000
      1645        18  POPC      H4R            49.1037302648       28.5448750655       53.7979227918  MEMB      12              0.0000000000
      1646        18  POPC      H4S            48.2997522716       30.1330835337       53.5472625970  MEMB      12              0.0000000000
      1647        18  POPC      C25            48.2357543453       28.7903266802       51.8310180458  MEMB      12              0.0000000000
      1648        18  POPC      H5R            48.0568648139       27.7060066345       51.6461871085  MEMB      12              0.0000000000
      1649        18  POPC      H5S            49.2465622895       29.0380859640       51.4323928916  MEMB      12              0.0000000000
      1650        18  POPC      C26            47.1917607326       29.6022679432       51.0478432700  MEMB      12              0.0000000000
      1651        18  POPC      H6R            47.4079612729       30.6869405799       51.1779666486  MEMB      12              0.0000000000
      1652        18  POPC      H6S            46.1718002399       29.3996065752       51.4457431682  MEMB      12              0.0000000000
      1653        18  POPC      C27            47.2067061594       29.2532077652       49.5518756331  MEMB      12              0.0000000000
      1654        18  POPC      H7R            46.8193044533       28.2209814964       49.4091083309  MEMB      12              0.0000000000
      1655        18  POPC      H7S            48.2661559666       29.2595283867       49.2074694060  MEMB      12              0.0000000000
      1656        18  POPC      C28            46.4257785411       30.2398403272       48.6626352552  MEMB      12              0.0000000000
      1657        18  POPC      H8R            46.5589224036       29.9195441663       47.6050346408  MEMB      12              0.0000000000
      1658        18  POPC      H8S            46.9183983465       31.2301227218       48.7567094630  MEMB      12              0.0000000000
      1659        18  POPC      C29            44.9678832818       30.3898819064       49.0069526781  MEMB      12              0.0000000000
      1660        18  POPC      H91            44.7592526709       31.1343050847       49.7915399596  MEMB      12              0.0000000000
      1661        18  POPC      C210           43.9280288898       29.7383515060       48.4569510848  MEMB      12              0.0000000000
      1662        18  POPC      H101           42.9170564293       29.9973411820       48.7922547834  MEMB      12              0.0000000000
      1663        18  POPC      C211           43.9378822923       28.7005920244       47.3688033062  MEMB      12              0.0000000000
      1664        18  POPC      H11R           43.5594459982       27.7386790379       47.7800977087  MEMB      12              0.0000000000
      1665        18  POPC      H11S           44.9606559238       28.4990107661       46.9855417796  MEMB      12              0.0000000000
      1666        18  POPC      C212           43.0139092725       29.1108015055       46.2058254634  MEMB      12              0.0000000000
      1667        18  POPC      H12R           41.9911649085       29.3208680443       46.5927972186  MEMB      12              0.0000000000
      1668        18  POPC      H12S           42.9426495726       28.2541863099       45.4966441215  MEMB      12              0.0000000000
      1669        18  POPC      C213           43.4881151214       30.3442048307       45.4325299195  MEMB      12              0.0000000000
      1670        18  POPC      H13R           43.4683308060       31.2300859035       46.1021011180  MEMB      12              0.0000000000
      1671        18  POPC      H13S           42.7849807661       30.5333013755       44.5915093553  MEMB      12              0.0000000000
      1672        18  POPC      C214           44.9160335028       30.2098412076       44.9137301025  MEMB      12              0.0000000000
      1673        18  POPC      H14R           45.1767106047       29.1336465450       44.8131129037  MEMB      12              0.0000000000
      1674        18  POPC      H14S           45.5980216454       30.6499683742       45.6779621515  MEMB      12              0.0000000000
      1675        18  POPC      C215           45.1384975101       30.9158649698       43.5735851604  MEMB      12              0.0000000000
      1676        18  POPC      H15R           46.2221600630       31.1783928030       43.5297336290  MEMB      12              0.0000000000
      1677        18  POPC      H15S           44.5830440260       31.8723739922       43.5439515848  MEMB      12              0.0000000000
      1678        18  POPC      C216           44.8412594350       30.0220554556       42.3557296271  MEMB      12              0.0000000000
      1679        18  POPC      H16R           45.0377403132       28.9577824276       42.6081683824  MEMB      12              0.0000000000
      1680        18  POPC      H16S           45.5843025839       30.2988261177       41.5824369399  MEMB      12              0.0000000000
      1681        18  POPC      C217           43.4405453193       30.1425246253       41.7348871734  MEMB      12              0.0000000000
      1682        18  POPC      H17R           42.8325408455       30.8529559001       42.3354027599  MEMB      12              0.0000000000
      1683        18  POPC      H17S           42.9398006173       29.1499866308       41.8097524410  MEMB      12              0.0000000000
      1684        18  POPC      C218           43.4377010128       30.5859516474       40.2638018332  MEMB      12              0.0000000000
      1685        18  POPC      H18R           42.9670841643       31.5869956728       40.1624832856  MEMB      12              0.0000000000
      1686        18  POPC      H18S           42.8678028771       29.8709861683       39.6356201305  MEMB      12              0.0000000000
      1687        18  POPC      H18T           44.4674580469       30.6475396986       39.8517684497  MEMB      12              0.0000000000
      1688        18  POPC      C33            43.0644981915       26.6034929322       53.5494223764  MEMB      12              0.0000000000
      1689        18  POPC      H3X            43.7388149420       26.1835649169       54.3255621051  MEMB      12              0.0000000000
      1690        18  POPC      H3Y            43.6347951054       27.3919854520       53.0183571990  MEMB      12              0.0000000000
      1691        18  POPC      C34            42.7346826814       25.4493708422       52.6031753489  MEMB      12              0.0000000000
      1692        18  POPC      H4X            42.0231495507       25.8120543865       51.8295539822  MEMB      12              0.0000000000
      1693        18  POPC      H4Y            42.2256640996       24.6802251509       53.2223573714  MEMB      12              0.0000000000
      1694        18  POPC      C35            43.9345228794       24.7998129168       51.9073193404  MEMB      12              0.0000000000
      1695        18  POPC      H5X            43.6848723084       23.7317294958       51.7001831314  MEMB      12              0.0000000000
      1696        18  POPC      H5Y            44.8304211322       24.8131867460       52.5650966755  MEMB      12              0.0000000000
      1697        18  POPC      C36            44.1956480512       25.4929727016       50.5716342139  MEMB      12              0.0000000000
      1698        18  POPC      H6X            44.4118708108       26.5713962342       50.7423648216  MEMB      12              0.0000000000
      1699        18  POPC      H6Y            43.2609916705       25.4341201250       49.9660424909  MEMB      12              0.0000000000
      1700        18  POPC      C37            45.3300279227       24.8858189200       49.7490933553  MEMB      12              0.0000000000
      1701        18  POPC      H7X            45.1929222504       23.7839411187       49.6617021113  MEMB      12              0.0000000000
      1702        18  POPC      H7Y            46.3032858567       25.0742193326       50.2551945392  MEMB      12              0.0000000000
      1703        18  POPC      C38            45.3204863296       25.5043941726       48.3474693018  MEMB      12              0.0000000000
      1704        18  POPC      H8X            45.4183801574       26.6078661793       48.4350076181  MEMB      12              0.0000000000
      1705        18  POPC      H8Y            44.3260257679       25.2942809878       47.8952631780  MEMB      12              0.0000000000
      1706        18  POPC      C39            46.4226727772       24.9727872268       47.4310966288  MEMB      12              0.0000000000
      1707        18  POPC      H9X            46.4861769374       23.8736165235       47.5678550542  MEMB      12              0.0000000000
      1708        18  POPC      H9Y            47.3930132829       25.4149980916       47.7507953547  MEMB      12              0.0000000000
      1709        18  POPC      C310           46.1728968313       25.2765639551       45.9446748065  MEMB      12              0.0000000000
      1710        18  POPC      H10X           47.1281842064       25.1399191277       45.3894928063  MEMB      12              0.0000000000
      1711        18  POPC      H10Y           45.8672125035       26.3405743706       45.8344321009  MEMB      12              0.0000000000
      1712        18  POPC      C311           45.1092308994       24.3551526948       45.3245029158  MEMB      12              0.0000000000
      1713        18  POPC      H11X           44.1867301318       24.3975140933       45.9449684585  MEMB      12              0.0000000000
      1714        18  POPC      H11Y           45.4669329014       23.3050313870       45.3616541394  MEMB      12              0.0000000000
      1715        18  POPC      C312           44.7053999375       24.7262723348       43.8896582389  MEMB      12              0.0000000000
      1716        18  POPC      H12X           44.2831383065       25.7571914663       43.8992048274  MEMB      12              0.0000000000
      1717        18  POPC      H12Y           43.9047656449       24.0246944399       43.5564461002  MEMB      12              0.0000000000
      1718        18  POPC      C313           45.8185047548       24.6797232451       42.8431461526  MEMB      12              0.0000000000
      1719        18  POPC      H13X           46.1365816313       23.6323505788       42.7087345459  MEMB      12              0.0000000000
      1720        18  POPC      H13Y           46.7080836748       25.2501964149       43.1826647615  MEMB      12              0.0000000000
      1721        18  POPC      C314           45.3340561354       25.2326374013       41.4974119210  MEMB      12              0.0000000000
      1722        18  POPC      H14X           44.9744155936       26.2745082844       41.6538505915  MEMB      12              0.0000000000
      1723        18  POPC      H14Y           44.4774386556       24.6237071240       41.1286887679  MEMB      12              0.0000000000
      1724        18  POPC      C315           46.4331790183       25.2464602663       40.4356863557  MEMB      12              0.0000000000
      1725        18  POPC      H15X           46.7365111913       24.2053045699       40.2154167089  MEMB      12              0.0000000000
      1726        18  POPC      H15Y           47.3298121222       25.7402300797       40.8674719690  MEMB      12              0.0000000000
      1727        18  POPC      C316           46.0167844072       25.9492018994       39.1409866751  MEMB      12              0.0000000000
      1728        18  POPC      H16X           46.8872698076       26.0522394744       38.4565798820  MEMB      12              0.0000000000
      1729        18  POPC      H16Y           45.6229973618       26.9624540144       39.3657591136  MEMB      12              0.0000000000
      1730        18  POPC      H16Z           45.2185793367       25.3918039960       38.6106665474  MEMB      12              0.0000000000
      1731        19  POPC      N              34.8971252799       15.5419935019       62.6827130187  MEMB      13              0.0000000000
      1732        19  POPC      C12            34.2510273084       15.1334290043       61.3574684286  MEMB      13              0.0000000000
      1733        19  POPC      H12A           34.1864635477       15.9702434256       60.6832220946  MEMB      13              0.0000000000
      1734        19  POPC      H12B           33.2373178542       14.7757239778       61.5474696445  MEMB      13              0.0000000000
      1735        19  POPC      C13            34.1482029075       16.6459999264       63.3597135344  MEMB      13              0.0000000000
      1736        19  POPC      H13A           34.6931313521       16.9783038140       64.2412891426  MEMB      13              0.0000000000
      1737        19  POPC      H13B           34.0124454947       17.4806344044       62.6954716529  MEMB      13              0.0000000000
      1738        19  POPC      H13C           33.1903524723       16.2745625380       63.7173154164  MEMB      13              0.0000000000
      1739        19  POPC      C14            34.8253190295       14.3545648638       63.5977541718  MEMB      13              0.0000000000
      1740        19  POPC      H14A           33.7874980398       14.0133007275       63.7061404083  MEMB      13              0.0000000000
      1741        19  POPC      H14B           35.2995893775       13.5032151903       63.1092128082  MEMB      13              0.0000000000
      1742        19  POPC      H14C           35.2595533659       14.5175153588       64.5623284360  MEMB      13              0.0000000000
      1743        19  POPC      C15            36.3243463052       15.9078179177       62.4408994645  MEMB      13              0.0000000000
      1744        19  POPC      H15A           36.4697971242       16.7155370407       61.7313114777  MEMB      13              0.0000000000
      1745        19  POPC      H15B           36.8515783829       15.0614101817       62.0069637579  MEMB      13              0.0000000000
      1746        19  POPC      H15C           36.9017524951       16.1646362162       63.3282410708  MEMB      13              0.0000000000
      1747        19  POPC      C11            34.9342468738       13.9694516684       60.5989783352  MEMB      13              0.0000000000
      1748        19  POPC      H11A           36.0282133448       14.1365136639       60.5184200812  MEMB      13              0.0000000000
      1749        19  POPC      H11B           34.5621710053       13.9000145852       59.5498866811  MEMB      13              0.0000000000
      1750        19  POPC      P              33.2509222262       12.1694161557       61.4062565362  MEMB      13              0.0000000000
      1751        19  POPC      O13            32.5666681038       12.8844658963       62.5136746408  MEMB      13              0.0000000000
      1752        19  POPC      O14            33.4726265507       10.7138490684       61.5114125190  MEMB      13              0.0000000000
      1753        19  POPC      O12            34.7144999181       12.7500961318       61.2851691447  MEMB      13              0.0000000000
      1754        19  POPC      O11            32.6171019107       12.6166588726       60.0450027808  MEMB      13              0.0000000000
      1755        19  POPC      C1             31.6634125476       11.8110511401       59.3714346307  MEMB      13              0.0000000000
      1756        19  POPC      HA             31.0070747366       12.4853755705       58.7779283861  MEMB      13              0.0000000000
      1757        19  POPC      HB             30.9971301305       11.2549904446       60.0743730088  MEMB      13              0.0000000000
      1758        19  POPC      C2             32.3278770651       10.8092823904       58.3888944333  MEMB      13              0.0000000000
      1759        19  POPC      HS             33.0045773536       10.1411231170       58.9738179285  MEMB      13              0.0000000000
      1760        19  POPC      O21            33.0586891628       11.5271338107       57.3730163831  MEMB      13              0.0000000000
      1761        19  POPC      C21            33.7146895132       10.7173602596       56.5489360952  MEMB      13              0.0000000000
      1762        19  POPC      O22            33.9761146620        9.5462418427       56.7621219067  MEMB      13              0.0000000000
      1763        19  POPC      C22            34.0119536005       11.4352490349       55.2415752845  MEMB      13              0.0000000000
      1764        19  POPC      H2R            33.0444508370       11.5277629185       54.7053428206  MEMB      13              0.0000000000
      1765        19  POPC      H2S            34.6642380703       10.7724238418       54.6476012127  MEMB      13              0.0000000000
      1766        19  POPC      C3             31.2091750556        9.9536937909       57.7485028707  MEMB      13              0.0000000000
      1767        19  POPC      HX             30.8208008424        9.3274525674       58.5641012370  MEMB      13              0.0000000000
      1768        19  POPC      HY             31.5943385296        9.2373469697       56.9935943543  MEMB      13              0.0000000000
      1769        19  POPC      O31            30.1626350260       10.8165425103       57.2629866001  MEMB      13              0.0000000000
      1770        19  POPC      C31            30.2314991746       11.0918405635       55.9740782055  MEMB      13              0.0000000000
      1771        19  POPC      O32            30.8734271757       10.4697984393       55.1428263140  MEMB      13              0.0000000000
      1772        19  POPC      C32            29.4388219761       12.3790466791       55.7021221678  MEMB      13              0.0000000000
      1773        19  POPC      H2X            29.7435510085       13.1053931949       56.4869448973  MEMB      13              0.0000000000
      1774        19  POPC      H2Y            28.3574047254       12.1635976723       55.8084756525  MEMB      13              0.0000000000
      1775        19  POPC      C23            34.6420184603       12.8366524657       55.3619844127  MEMB      13              0.0000000000
      1776        19  POPC      H3R            35.6579098036       12.8138016346       55.8144239809  MEMB      13              0.0000000000
      1777        19  POPC      H3S            34.0035612536       13.4646674586       56.0260837184  MEMB      13              0.0000000000
      1778        19  POPC      C24            34.6803526852       13.4771213220       53.9755319508  MEMB      13              0.0000000000
      1779        19  POPC      H4R            34.2070638751       12.7789296977       53.2461221050  MEMB      13              0.0000000000
      1780        19  POPC      H4S            35.7264004422       13.6244575006       53.6336177541  MEMB      13              0.0000000000
      1781        19  POPC      C25            33.8899356937       14.7839983312       53.9362615650  MEMB      13              0.0000000000
      1782        19  POPC      H5R            34.4777990607       15.5676387974       54.4642585801  MEMB      13              0.0000000000
      1783        19  POPC      H5S            32.9288218641       14.6592629158       54.4859605664  MEMB      13              0.0000000000
      1784        19  POPC      C26            33.5756800951       15.2131847895       52.5012820720  MEMB      13              0.0000000000
      1785        19  POPC      H6R            32.5102793761       15.0088919128       52.2530666874  MEMB      13              0.0000000000
      1786        19  POPC      H6S            34.1810154386       14.5818631954       51.8140076865  MEMB      13              0.0000000000
      1787        19  POPC      C27            33.8885894798       16.6950245496       52.2759095898  MEMB      13              0.0000000000
      1788        19  POPC      H7R            34.7412739519       17.0018256566       52.9182453365  MEMB      13              0.0000000000
      1789        19  POPC      H7S            33.0155863652       17.2808199719       52.6287206083  MEMB      13              0.0000000000
      1790        19  POPC      C28            34.2391260725       17.0404612932       50.8209511021  MEMB      13              0.0000000000
      1791        19  POPC      H8R            34.4000903831       18.1380413006       50.7544816337  MEMB      13              0.0000000000
      1792        19  POPC      H8S            33.3670711910       16.7896782620       50.1778563219  MEMB      13              0.0000000000
      1793        19  POPC      C29            35.4924314516       16.3150806023       50.4050380303  MEMB      13              0.0000000000
      1794        19  POPC      H91            36.3472391441       16.4440598883       51.0829083554  MEMB      13              0.0000000000
      1795        19  POPC      C210           35.6348711723       15.5200742850       49.3361687741  MEMB      13              0.0000000000
      1796        19  POPC      H101           36.5972624548       15.0120830940       49.1776480655  MEMB      13              0.0000000000
      1797        19  POPC      C211           34.5710623658       15.1930539036       48.3284057963  MEMB      13              0.0000000000
      1798        19  POPC      H11R           33.5781840958       15.0610503527       48.8171931228  MEMB      13              0.0000000000
      1799        19  POPC      H11S           34.8161418103       14.2268560616       47.8343439465  MEMB      13              0.0000000000
      1800        19  POPC      C212           34.4315011570       16.2676821822       47.2379311225  MEMB      13              0.0000000000
      1801        19  POPC      H12R           35.4288730768       16.5427163646       46.8268644525  MEMB      13              0.0000000000
      1802        19  POPC      H12S           33.9815512026       17.1854952235       47.6805740940  MEMB      13              0.0000000000
      1803        19  POPC      C213           33.5482415357       15.7499462281       46.0938912183  MEMB      13              0.0000000000
      1804        19  POPC      H13R           32.6664660629       15.2554943651       46.5624088700  MEMB      13              0.0000000000
      1805        19  POPC      H13S           34.1179493501       14.9802120292       45.5279578942  MEMB      13              0.0000000000
      1806        19  POPC      C214           33.0207563763       16.8155113953       45.1230170215  MEMB      13              0.0000000000
      1807        19  POPC      H14R           32.2499636525       17.4071653869       45.6732057063  MEMB      13              0.0000000000
      1808        19  POPC      H14S           32.5153373989       16.3283891597       44.2610214964  MEMB      13              0.0000000000
      1809        19  POPC      C215           34.0792663143       17.8088499793       44.6299748826  MEMB      13              0.0000000000
      1810        19  POPC      H15R           34.4862989528       18.2826126975       45.5476984259  MEMB      13              0.0000000000
      1811        19  POPC      H15S           33.5740350333       18.5994894980       44.0279268492  MEMB      13              0.0000000000
      1812        19  POPC      C216           35.2549097604       17.2359474422       43.8165658133  MEMB      13              0.0000000000
      1813        19  POPC      H16R           34.8536779340       16.7255502990       42.9159351188  MEMB      13              0.0000000000
      1814        19  POPC      H16S           35.7934031744       16.4762471715       44.4207331496  MEMB      13              0.0000000000
      1815        19  POPC      C217           36.2512142978       18.3357982878       43.3894714926  MEMB      13              0.0000000000
      1816        19  POPC      H17R           36.6778834275       18.8045003891       44.3036427796  MEMB      13              0.0000000000
      1817        19  POPC      H17S           35.6798199304       19.1177326398       42.8380983657  MEMB      13              0.0000000000
      1818        19  POPC      C218           37.4322728944       17.8815894086       42.5296974759  MEMB      13              0.0000000000
      1819        19  POPC      H18R           38.2758734517       17.5509657627       43.1722015287  MEMB      13              0.0000000000
      1820        19  POPC      H18S           37.7942834051       18.7040993888       41.8776850668  MEMB      13              0.0000000000
      1821        19  POPC      H18T           37.1349472771       17.0376436891       41.8770507675  MEMB      13              0.0000000000
      1822        19  POPC      C33            29.7360400077       12.9953637902       54.3135534109  MEMB      13              0.0000000000
      1823        19  POPC      H3X            30.8207744256       12.8869905019       54.0920169923  MEMB      13              0.0000000000
      1824        19  POPC      H3Y            29.5192951217       14.0880265879       54.3375447874  MEMB      13              0.0000000000
      1825        19  POPC      C34            28.8704114100       12.3648530598       53.2130558781  MEMB      13              0.0000000000
      1826        19  POPC      H4X            27.8201935408       12.7149670777       53.3414694794  MEMB      13              0.0000000000
      1827        19  POPC      H4Y            28.8723616639       11.2642209198       53.3632820964  MEMB      13              0.0000000000
      1828        19  POPC      C35            29.3159126839       12.6556050835       51.7684379374  MEMB      13              0.0000000000
      1829        19  POPC      H5X            29.1076591611       13.7233856759       51.5323287243  MEMB      13              0.0000000000
      1830        19  POPC      H5Y            28.6956669593       12.0363040852       51.0800997436  MEMB      13              0.0000000000
      1831        19  POPC      C36            30.7990349695       12.3762320829       51.4651218839  MEMB      13              0.0000000000
      1832        19  POPC      H6X            31.4433949448       13.0292447379       52.0909146063  MEMB      13              0.0000000000
      1833        19  POPC      H6Y            30.9796117031       12.6697145617       50.4068538186  MEMB      13              0.0000000000
      1834        19  POPC      C37            31.2353155288       10.9105134521       51.6523028967  MEMB      13              0.0000000000
      1835        19  POPC      H7X            30.6483147437       10.2712844116       50.9570173973  MEMB      13              0.0000000000
      1836        19  POPC      H7Y            30.9935862383       10.5789774501       52.6864928597  MEMB      13              0.0000000000
      1837        19  POPC      C38            32.7443953487       10.6817866834       51.4130215943  MEMB      13              0.0000000000
      1838        19  POPC      H8X            32.9467121345        9.5897405511       51.3567720151  MEMB      13              0.0000000000
      1839        19  POPC      H8Y            33.2828520217       11.0647446772       52.3093668412  MEMB      13              0.0000000000
      1840        19  POPC      C39            33.3334129678       11.3922881262       50.1726465244  MEMB      13              0.0000000000
      1841        19  POPC      H9X            34.4240083769       11.1817339786       50.1069524686  MEMB      13              0.0000000000
      1842        19  POPC      H9Y            33.2336716317       12.4882591886       50.3474650958  MEMB      13              0.0000000000
      1843        19  POPC      C310           32.6516138626       11.0463729705       48.8350741146  MEMB      13              0.0000000000
      1844        19  POPC      H10X           31.5638764564       10.8885179660       49.0049292668  MEMB      13              0.0000000000
      1845        19  POPC      H10Y           33.0617680320       10.0921693610       48.4373320879  MEMB      13              0.0000000000
      1846        19  POPC      C311           32.7932922770       12.1551974324       47.7711488822  MEMB      13              0.0000000000
      1847        19  POPC      H11X           33.8362308202       12.1452419995       47.3849667687  MEMB      13              0.0000000000
      1848        19  POPC      H11Y           32.6080195908       13.1445776935       48.2439759459  MEMB      13              0.0000000000
      1849        19  POPC      C312           31.8013874386       11.9856626406       46.6078322989  MEMB      13              0.0000000000
      1850        19  POPC      H12X           30.7766464998       12.2566910473       46.9469625245  MEMB      13              0.0000000000
      1851        19  POPC      H12Y           31.7873317982       10.9043970882       46.3476673881  MEMB      13              0.0000000000
      1852        19  POPC      C313           32.1442251651       12.7626099318       45.3228818470  MEMB      13              0.0000000000
      1853        19  POPC      H13X           33.2485783422       12.8052061701       45.2021295814  MEMB      13              0.0000000000
      1854        19  POPC      H13Y           31.7543310615       13.8009415073       45.3831567389  MEMB      13              0.0000000000
      1855        19  POPC      C314           31.5361066892       12.0878736580       44.0882578669  MEMB      13              0.0000000000
      1856        19  POPC      H14X           30.4302928018       12.0605301464       44.2164284730  MEMB      13              0.0000000000
      1857        19  POPC      H14Y           31.8957093754       11.0368058528       44.0597487416  MEMB      13              0.0000000000
      1858        19  POPC      C315           31.8413246262       12.7431378680       42.7323684374  MEMB      13              0.0000000000
      1859        19  POPC      H15X           31.3626792100       13.7456965877       42.6957387148  MEMB      13              0.0000000000
      1860        19  POPC      H15Y           31.3549698287       12.1008971527       41.9594488806  MEMB      13              0.0000000000
      1861        19  POPC      C316           33.3184232176       12.8950744197       42.3675237897  MEMB      13              0.0000000000
      1862        19  POPC      H16X           33.4324517544       13.2193860417       41.3110176660  MEMB      13              0.0000000000
      1863        19  POPC      H16Y           33.8328289670       11.9229484851       42.4741178967  MEMB      13              0.0000000000
      1864        19  POPC      H16Z           33.8243680389       13.6375113085       43.0200014535  MEMB      13              0.0000000000
      1865        20  POPC      N              19.1039572874       42.0141731522       62.7610992218  MEMB      14              0.0000000000
      1866        20  POPC      C12            19.2083990013       41.7010928162       61.2655071523  MEMB      14              0.0000000000
      1867        20  POPC      H12A           19.8921573386       42.3839825977       60.7846359525  MEMB      14              0.0000000000
      1868        20  POPC      H12B           18.2335089379       41.8759489758       60.8036281305  MEMB      14              0.0000000000
      1869        20  POPC      C13            18.8310391438       43.4727717086       62.9605835551  MEMB      14              0.0000000000
      1870        20  POPC      H13A           19.6560796076       44.0733255856       62.5986163753  MEMB      14              0.0000000000
      1871        20  POPC      H13B           17.9485930580       43.7537960480       62.3967259113  MEMB      14              0.0000000000
      1872        20  POPC      H13C           18.6725098108       43.7167586006       64.0055630839  MEMB      14              0.0000000000
      1873        20  POPC      C14            17.9558285355       41.1908276269       63.2653859998  MEMB      14              0.0000000000
      1874        20  POPC      H14A           18.1974691252       40.1366241280       63.1101069579  MEMB      14              0.0000000000
      1875        20  POPC      H14B           17.6584713889       41.4006200193       64.2721520699  MEMB      14              0.0000000000
      1876        20  POPC      H14C           17.0822423734       41.2998472696       62.6070298454  MEMB      14              0.0000000000
      1877        20  POPC      C15            20.3395593384       41.6046105172       63.4998711502  MEMB      14              0.0000000000
      1878        20  POPC      H15A           20.2500399790       41.7853455719       64.5657596635  MEMB      14              0.0000000000
      1879        20  POPC      H15B           21.2177146777       42.1216864656       63.1333685757  MEMB      14              0.0000000000
      1880        20  POPC      H15C           20.4936007244       40.5440990789       63.3300358983  MEMB      14              0.0000000000
      1881        20  POPC      C11            19.5780395793       40.2577254735       60.8368792931  MEMB      14              0.0000000000
      1882        20  POPC      H11A           20.5263767629       39.9481693341       61.3250739185  MEMB      14              0.0000000000
      1883        20  POPC      H11B           19.7780655598       40.2480447007       59.7461723283  MEMB      14              0.0000000000
      1884        20  POPC      P              17.1426690346       39.2528859605       60.4239102604  MEMB      14              0.0000000000
      1885        20  POPC      O13            16.3248240666       40.3282963664       61.0233766224  MEMB      14              0.0000000000
      1886        20  POPC      O14            16.6640994670       37.8557105724       60.5348093734  MEMB      14              0.0000000000
      1887        20  POPC      O12            18.5606678959       39.3231535337       61.1540249599  MEMB      14              0.0000000000
      1888        20  POPC      O11            17.4211034870       39.6285227961       58.9145604766  MEMB      14              0.0000000000
      1889        20  POPC      C1             17.6504204779       38.6745148478       57.8900952150  MEMB      14              0.0000000000
      1890        20  POPC      HA             16.8266299184       38.7115444939       57.1479055383  MEMB      14              0.0000000000
      1891        20  POPC      HB             17.6848677177       37.6281363051       58.2779837924  MEMB      14              0.0000000000
      1892        20  POPC      C2             18.9826284972       38.9839732090       57.1689968370  MEMB      14              0.0000000000
      1893        20  POPC      HS             19.7498903366       39.2176411641       57.9458853582  MEMB      14              0.0000000000
      1894        20  POPC      O21            18.8309497975       40.0228490602       56.1857084229  MEMB      14              0.0000000000
      1895        20  POPC      C21            19.1537063855       41.2150736478       56.6311557287  MEMB      14              0.0000000000
      1896        20  POPC      O22            19.5392061291       41.4940106468       57.7502099922  MEMB      14              0.0000000000
      1897        20  POPC      C22            19.0193341601       42.2811357113       55.5496784221  MEMB      14              0.0000000000
      1898        20  POPC      H2R            20.0196105818       42.7526994240       55.4592476949  MEMB      14              0.0000000000
      1899        20  POPC      H2S            18.3119349763       43.0394237222       55.9462122591  MEMB      14              0.0000000000
      1900        20  POPC      C3             19.5114806893       37.7372765930       56.4608631912  MEMB      14              0.0000000000
      1901        20  POPC      HX             19.7561237039       37.0546144235       57.2798824370  MEMB      14              0.0000000000
      1902        20  POPC      HY             20.4611819540       38.0305003060       55.9489588121  MEMB      14              0.0000000000
      1903        20  POPC      O31            18.5020215176       37.1252364600       55.6271728091  MEMB      14              0.0000000000
      1904        20  POPC      C31            18.9887138769       36.6938221079       54.4717318313  MEMB      14              0.0000000000
      1905        20  POPC      O32            20.1565347656       36.7269656299       54.1423042054  MEMB      14              0.0000000000
      1906        20  POPC      C32            17.8714609674       36.1044630184       53.6109411416  MEMB      14              0.0000000000
      1907        20  POPC      H2X            16.8835560113       36.3911879516       54.0213861929  MEMB      14              0.0000000000
      1908        20  POPC      H2Y            17.9720465971       35.0028332228       53.7075171357  MEMB      14              0.0000000000
      1909        20  POPC      C23            18.5598766473       41.8225353733       54.1493166441  MEMB      14              0.0000000000
      1910        20  POPC      H3R            17.5671777138       41.3478587197       54.2503505520  MEMB      14              0.0000000000
      1911        20  POPC      H3S            19.2571417828       41.0601897816       53.7353703577  MEMB      14              0.0000000000
      1912        20  POPC      C24            18.4926197431       43.0470248333       53.2268881304  MEMB      14              0.0000000000
      1913        20  POPC      H4R            19.5332653716       43.3432131820       52.9630500922  MEMB      14              0.0000000000
      1914        20  POPC      H4S            18.0539258818       43.8892070800       53.8134781618  MEMB      14              0.0000000000
      1915        20  POPC      C25            17.6456388556       42.9068115699       51.9537587736  MEMB      14              0.0000000000
      1916        20  POPC      H5R            17.7889315209       43.8417971884       51.3635113086  MEMB      14              0.0000000000
      1917        20  POPC      H5S            16.5678438159       42.8516006960       52.2331668323  MEMB      14              0.0000000000
      1918        20  POPC      C26            17.9654146287       41.7152481050       51.0379039771  MEMB      14              0.0000000000
      1919        20  POPC      H6R            17.4301910014       41.8947038669       50.0803990264  MEMB      14              0.0000000000
      1920        20  POPC      H6S            17.5486422649       40.7845414251       51.4726063848  MEMB      14              0.0000000000
      1921        20  POPC      C27            19.4517259035       41.4787456793       50.7276475189  MEMB      14              0.0000000000
      1922        20  POPC      H7R            19.8263700707       40.6995340071       51.4304589726  MEMB      14              0.0000000000
      1923        20  POPC      H7S            20.0139706303       42.4154551099       50.9220468502  MEMB      14              0.0000000000
      1924        20  POPC      C28            19.6955430197       41.0371918784       49.2662104926  MEMB      14              0.0000000000
      1925        20  POPC      H8R            19.5682341282       41.9291873499       48.6132771190  MEMB      14              0.0000000000
      1926        20  POPC      H8S            18.8920320186       40.3370745884       48.9762251934  MEMB      14              0.0000000000
      1927        20  POPC      C29            21.0518998122       40.4120272080       49.0518474929  MEMB      14              0.0000000000
      1928        20  POPC      H91            21.8975859929       41.0442015450       49.3549120289  MEMB      14              0.0000000000
      1929        20  POPC      C210           21.3269844566       39.1953261910       48.5497650228  MEMB      14              0.0000000000
      1930        20  POPC      H101           22.3793821765       38.8987579204       48.4799204020  MEMB      14              0.0000000000
      1931        20  POPC      C211           20.3611375762       38.1419896196       48.0678239494  MEMB      14              0.0000000000
      1932        20  POPC      H11R           19.4907705235       38.6155789722       47.5642974473  MEMB      14              0.0000000000
      1933        20  POPC      H11S           19.9770086324       37.5417337731       48.9224435961  MEMB      14              0.0000000000
      1934        20  POPC      C212           21.0445483201       37.1765960506       47.0792240510  MEMB      14              0.0000000000
      1935        20  POPC      H12R           21.8671790310       36.6302061224       47.5952002319  MEMB      14              0.0000000000
      1936        20  POPC      H12S           21.5161457722       37.7691643880       46.2690700068  MEMB      14              0.0000000000
      1937        20  POPC      C213           20.1024903271       36.1423500223       46.4336094762  MEMB      14              0.0000000000
      1938        20  POPC      H13R           19.6843074933       35.4871892415       47.2302740062  MEMB      14              0.0000000000
      1939        20  POPC      H13S           20.7096159301       35.4981973208       45.7562852423  MEMB      14              0.0000000000
      1940        20  POPC      C214           18.9405913447       36.7316368430       45.6098077786  MEMB      14              0.0000000000
      1941        20  POPC      H14R           18.1840343732       37.1525351309       46.3094526293  MEMB      14              0.0000000000
      1942        20  POPC      H14S           18.4457205282       35.9049167518       45.0525501819  MEMB      14              0.0000000000
      1943        20  POPC      C215           19.3334232053       37.8385588795       44.6134876780  MEMB      14              0.0000000000
      1944        20  POPC      H15R           19.6418255549       38.7422081926       45.1865125343  MEMB      14              0.0000000000
      1945        20  POPC      H15S           18.4290684300       38.1222222207       44.0308092419  MEMB      14              0.0000000000
      1946        20  POPC      C216           20.4701409104       37.4739784866       43.6425091666  MEMB      14              0.0000000000
      1947        20  POPC      H16R           20.1846344359       36.5988431978       43.0209209926  MEMB      14              0.0000000000
      1948        20  POPC      H16S           21.3739106870       37.1793200425       44.2178231438  MEMB      14              0.0000000000
      1949        20  POPC      C217           20.8556417696       38.6621752953       42.7477580080  MEMB      14              0.0000000000
      1950        20  POPC      H17R           21.0799408495       39.5289544025       43.4100115203  MEMB      14              0.0000000000
      1951        20  POPC      H17S           19.9859145099       38.9428358682       42.1124209472  MEMB      14              0.0000000000
      1952        20  POPC      C218           22.0692555728       38.4020470704       41.8532341570  MEMB      14              0.0000000000
      1953        20  POPC      H18R           22.4199808675       39.3424682293       41.3780323022  MEMB      14              0.0000000000
      1954        20  POPC      H18S           21.8046633526       37.6895527364       41.0467446894  MEMB      14              0.0000000000
      1955        20  POPC      H18T           22.9056302313       37.9740502779       42.4466175402  MEMB      14              0.0000000000
      1956        20  POPC      C33            18.0122022677       36.4928463806       52.1138813624  MEMB      14              0.0000000000
      1957        20  POPC      H3X            17.8004883248       35.5804482696       51.5188718948  MEMB      14              0.0000000000
      1958        20  POPC      H3Y            19.0570814053       36.7690258183       51.8464721545  MEMB      14              0.0000000000
      1959        20  POPC      C34            17.0470188281       37.6136716182       51.6873087661  MEMB      14              0.0000000000
      1960        20  POPC      H4X            17.5604599973       38.5906467214       51.8166898268  MEMB      14              0.0000000000
      1961        20  POPC      H4Y            16.1736801182       37.6099097277       52.3757183076  MEMB      14              0.0000000000
      1962        20  POPC      C35            16.4854131099       37.4962631977       50.2566822962  MEMB      14              0.0000000000
      1963        20  POPC      H5X            15.3718200943       37.4801987316       50.2966427177  MEMB      14              0.0000000000
      1964        20  POPC      H5Y            16.8053737056       36.5420696090       49.7872677258  MEMB      14              0.0000000000
      1965        20  POPC      C36            16.8959867587       38.6467331435       49.3372831115  MEMB      14              0.0000000000
      1966        20  POPC      H6X            17.9800907018       38.5497604220       49.1424519118  MEMB      14              0.0000000000
      1967        20  POPC      H6Y            16.7050880814       39.6111540238       49.8512014251  MEMB      14              0.0000000000
      1968        20  POPC      C37            16.1188687663       38.6403917572       48.0166203492  MEMB      14              0.0000000000
      1969        20  POPC      H7X            15.0376923761       38.6332214314       48.2684064338  MEMB      14              0.0000000000
      1970        20  POPC      H7Y            16.3457733788       37.6954608754       47.4738834844  MEMB      14              0.0000000000
      1971        20  POPC      C38            16.3773970631       39.8341307340       47.0779729751  MEMB      14              0.0000000000
      1972        20  POPC      H8X            15.7278609147       39.6707077664       46.1916368446  MEMB      14              0.0000000000
      1973        20  POPC      H8Y            17.4308518479       39.8141402938       46.7191464806  MEMB      14              0.0000000000
      1974        20  POPC      C39            16.0849523688       41.2226059462       47.6877832997  MEMB      14              0.0000000000
      1975        20  POPC      H9X            17.0641603937       41.6850159750       47.9488770784  MEMB      14              0.0000000000
      1976        20  POPC      H9Y            15.5084835742       41.1012599638       48.6314885826  MEMB      14              0.0000000000
      1977        20  POPC      C310           15.3167317512       42.2064545230       46.7793282899  MEMB      14              0.0000000000
      1978        20  POPC      H10X           15.4495446865       43.2359293424       47.1836231790  MEMB      14              0.0000000000
      1979        20  POPC      H10Y           14.2289147377       41.9713776015       46.8079521888  MEMB      14              0.0000000000
      1980        20  POPC      C311           15.7903883312       42.1754706449       45.3217846053  MEMB      14              0.0000000000
      1981        20  POPC      H11X           15.4202330711       41.2335021256       44.8620923708  MEMB      14              0.0000000000
      1982        20  POPC      H11Y           16.9037038073       42.1530594193       45.3111075723  MEMB      14              0.0000000000
      1983        20  POPC      C312           15.3162131286       43.3521741334       44.4545328447  MEMB      14              0.0000000000
      1984        20  POPC      H12X           15.5273916725       44.3050237485       44.9906753770  MEMB      14              0.0000000000
      1985        20  POPC      H12Y           14.2180001247       43.2870777704       44.2953575963  MEMB      14              0.0000000000
      1986        20  POPC      C313           16.0360177964       43.3816137329       43.0954903303  MEMB      14              0.0000000000
      1987        20  POPC      H13X           17.1292205401       43.4543579952       43.3001183551  MEMB      14              0.0000000000
      1988        20  POPC      H13Y           15.7433546220       44.2970643395       42.5349282586  MEMB      14              0.0000000000
      1989        20  POPC      C314           15.7758655851       42.1388439662       42.2246786915  MEMB      14              0.0000000000
      1990        20  POPC      H14X           14.7763058077       42.2213690081       41.7453364877  MEMB      14              0.0000000000
      1991        20  POPC      H14Y           15.7632363153       41.2245259139       42.8570212381  MEMB      14              0.0000000000
      1992        20  POPC      C315           16.8637144173       41.8968910414       41.1701993761  MEMB      14              0.0000000000
      1993        20  POPC      H15X           16.6580972808       40.9309131568       40.6691119374  MEMB      14              0.0000000000
      1994        20  POPC      H15Y           17.8445927275       41.7987106915       41.6897334676  MEMB      14              0.0000000000
      1995        20  POPC      C316           16.9573416176       42.9622038874       40.0859097750  MEMB      14              0.0000000000
      1996        20  POPC      H16X           16.8752926351       43.9721846274       40.5262990340  MEMB      14              0.0000000000
      1997        20  POPC      H16Y           16.1346933386       42.8471139114       39.3524999183  MEMB      14              0.0000000000
      1998        20  POPC      H16Z           17.9207465799       42.8809373547       39.5387274090  MEMB      14              0.0000000000
      1999        21  POPC      N              16.8750259956       34.5404521920       62.1798532347  MEMB      15              0.0000000000
      2000        21  POPC      C12            17.4943184700       33.1692585455       62.4221016826  MEMB      15              0.0000000000
      2001        21  POPC      H12A           17.8515640679       33.0990927029       63.4450505025  MEMB      15              0.0000000000
      2002        21  POPC      H12B           18.3789228081       33.0804624965       61.8009162648  MEMB      15              0.0000000000
      2003        21  POPC      C13            16.3843971059       34.6619898297       60.7620391807  MEMB      15              0.0000000000
      2004        21  POPC      H13A           15.8362982201       35.5947738666       60.6165480460  MEMB      15              0.0000000000
      2005        21  POPC      H13B           17.1791677453       34.6420342002       60.0331159173  MEMB      15              0.0000000000
      2006        21  POPC      H13C           15.7466017898       33.8007176723       60.5621460304  MEMB      15              0.0000000000
      2007        21  POPC      C14            15.6696141057       34.7755438111       63.0509344083  MEMB      15              0.0000000000
      2008        21  POPC      H14A           14.9327120206       33.9928700825       62.8797041492  MEMB      15              0.0000000000
      2009        21  POPC      H14B           15.9211970949       34.7532766872       64.1051093331  MEMB      15              0.0000000000
      2010        21  POPC      H14C           15.1616103415       35.7102211576       62.8001759516  MEMB      15              0.0000000000
      2011        21  POPC      C15            17.9160936660       35.5906017444       62.4342054426  MEMB      15              0.0000000000
      2012        21  POPC      H15A           18.2701488106       35.5535438464       63.4562273125  MEMB      15              0.0000000000
      2013        21  POPC      H15B           17.5147714448       36.5850243882       62.2308573101  MEMB      15              0.0000000000
      2014        21  POPC      H15C           18.7676044738       35.4740861518       61.7683153642  MEMB      15              0.0000000000
      2015        21  POPC      C11            16.6625103484       31.9023997298       62.1217838785  MEMB      15              0.0000000000
      2016        21  POPC      H11A           15.7033802203       31.9507334546       62.6852354325  MEMB      15              0.0000000000
      2017        21  POPC      H11B           17.2410990702       31.0153410099       62.4760354517  MEMB      15              0.0000000000
      2018        21  POPC      P              15.4364790990       30.6999236739       60.1655493686  MEMB      15              0.0000000000
      2019        21  POPC      O13            15.8750180431       29.3447873525       60.5253275010  MEMB      15              0.0000000000
      2020        21  POPC      O14            15.2051258627       30.9988111999       58.7318695273  MEMB      15              0.0000000000
      2021        21  POPC      O12            16.4542141239       31.7803295246       60.7214962398  MEMB      15              0.0000000000
      2022        21  POPC      O11            14.1803120334       31.0537885789       61.0510876189  MEMB      15              0.0000000000
      2023        21  POPC      C1             13.3014975516       32.1158577842       60.6978334047  MEMB      15              0.0000000000
      2024        21  POPC      HA             13.7656875338       32.8112684700       59.9566585735  MEMB      15              0.0000000000
      2025        21  POPC      HB             13.0763571915       32.7406370762       61.5915801454  MEMB      15              0.0000000000
      2026        21  POPC      C2             11.9460422219       31.5953629936       60.1324890459  MEMB      15              0.0000000000
      2027        21  POPC      HS             11.2923328742       31.3037930139       60.9870233545  MEMB      15              0.0000000000
      2028        21  POPC      O21            12.1081336453       30.4865547501       59.2272907722  MEMB      15              0.0000000000
      2029        21  POPC      C21            12.1418501322       29.2788571150       59.7597376832  MEMB      15              0.0000000000
      2030        21  POPC      O22            12.1429341030       29.0243021416       60.9470773787  MEMB      15              0.0000000000
      2031        21  POPC      C22            12.1009779746       28.2382313657       58.6363853631  MEMB      15              0.0000000000
      2032        21  POPC      H2R            11.0587304591       28.2188551076       58.2823960946  MEMB      15              0.0000000000
      2033        21  POPC      H2S            12.3123103190       27.2605562018       59.1113866640  MEMB      15              0.0000000000
      2034        21  POPC      C3             11.2653136484       32.7574826242       59.3625556224  MEMB      15              0.0000000000
      2035        21  POPC      HX             11.0270827315       33.5630218594       60.0940129446  MEMB      15              0.0000000000
      2036        21  POPC      HY             10.3018839032       32.4114940098       58.9151282655  MEMB      15              0.0000000000
      2037        21  POPC      O31            12.1866787169       33.2891980970       58.3831059055  MEMB      15              0.0000000000
      2038        21  POPC      C31            12.2487063348       32.5582782731       57.2781344495  MEMB      15              0.0000000000
      2039        21  POPC      O32            11.4131909251       31.7419314456       56.9147162481  MEMB      15              0.0000000000
      2040        21  POPC      C32            13.4356591719       32.9956599611       56.4255388372  MEMB      15              0.0000000000
      2041        21  POPC      H2X            14.3449162654       32.4626005374       56.7681487712  MEMB      15              0.0000000000
      2042        21  POPC      H2Y            13.5965788824       34.0834983823       56.5745823967  MEMB      15              0.0000000000
      2043        21  POPC      C23            13.0007228655       28.5197150264       57.4084811305  MEMB      15              0.0000000000
      2044        21  POPC      H3R            13.8941839053       29.1007737143       57.7456344615  MEMB      15              0.0000000000
      2045        21  POPC      H3S            12.4514488850       29.1752420314       56.7050140244  MEMB      15              0.0000000000
      2046        21  POPC      C24            13.5036995579       27.2222119805       56.7556955270  MEMB      15              0.0000000000
      2047        21  POPC      H4R            13.3449995089       26.4010009896       57.4909825629  MEMB      15              0.0000000000
      2048        21  POPC      H4S            14.6013413399       27.3446300756       56.6267810493  MEMB      15              0.0000000000
      2049        21  POPC      C25            12.9322759946       26.7486323876       55.3989693195  MEMB      15              0.0000000000
      2050        21  POPC      H5R            11.8389353663       26.6280919477       55.3927706453  MEMB      15              0.0000000000
      2051        21  POPC      H5S            13.3315826230       25.7206099528       55.2243260737  MEMB      15              0.0000000000
      2052        21  POPC      C26            13.4059985974       27.5628097603       54.1943772664  MEMB      15              0.0000000000
      2053        21  POPC      H6R            13.4048447052       26.9004078300       53.2974476643  MEMB      15              0.0000000000
      2054        21  POPC      H6S            14.4595509479       27.8660561461       54.3858484057  MEMB      15              0.0000000000
      2055        21  POPC      C27            12.5395183441       28.7851338979       53.8564341091  MEMB      15              0.0000000000
      2056        21  POPC      H7R            12.5272859238       29.4979352637       54.7071989491  MEMB      15              0.0000000000
      2057        21  POPC      H7S            11.4932463701       28.4500314593       53.6840489248  MEMB      15              0.0000000000
      2058        21  POPC      C28            13.0244595133       29.5298504122       52.6021709149  MEMB      15              0.0000000000
      2059        21  POPC      H8R            12.4634186329       30.4886396187       52.5247427311  MEMB      15              0.0000000000
      2060        21  POPC      H8S            12.7401880493       28.9200866847       51.7155790062  MEMB      15              0.0000000000
      2061        21  POPC      C29            14.5127627261       29.7848767648       52.6524461788  MEMB      15              0.0000000000
      2062        21  POPC      H91            14.8929316258       30.1570360427       53.6186706637  MEMB      15              0.0000000000
      2063        21  POPC      C210           15.3812029682       29.5514979115       51.6548657918  MEMB      15              0.0000000000
      2064        21  POPC      H101           16.4527105057       29.7431271107       51.8163913232  MEMB      15              0.0000000000
      2065        21  POPC      C211           15.0108574832       28.9920687299       50.3073804991  MEMB      15              0.0000000000
      2066        21  POPC      H11R           14.4288337468       28.0516136783       50.4435535546  MEMB      15              0.0000000000
      2067        21  POPC      H11S           15.9337961800       28.7134337325       49.7540605699  MEMB      15              0.0000000000
      2068        21  POPC      C212           14.1944023693       29.9461368242       49.4125421327  MEMB      15              0.0000000000
      2069        21  POPC      H12R           14.8790992069       30.7221749316       49.0046064582  MEMB      15              0.0000000000
      2070        21  POPC      H12S           13.4055905228       30.4730677437       49.9938417705  MEMB      15              0.0000000000
      2071        21  POPC      C213           13.5174493207       29.1934626991       48.2581433481  MEMB      15              0.0000000000
      2072        21  POPC      H13R           12.5369555497       28.7988180871       48.6038139307  MEMB      15              0.0000000000
      2073        21  POPC      H13S           14.1551962523       28.3247562699       48.0042039493  MEMB      15              0.0000000000
      2074        21  POPC      C214           13.3564950064       30.0366350967       46.9885711275  MEMB      15              0.0000000000
      2075        21  POPC      H14R           14.2982212657       29.9808828618       46.3992632730  MEMB      15              0.0000000000
      2076        21  POPC      H14S           13.2123564598       31.0923481198       47.2872041590  MEMB      15              0.0000000000
      2077        21  POPC      C215           12.1536601450       29.6355599652       46.1256557162  MEMB      15              0.0000000000
      2078        21  POPC      H15R           11.2303684543       29.8507244251       46.7030911657  MEMB      15              0.0000000000
      2079        21  POPC      H15S           12.1559623254       28.5460399825       45.9235118861  MEMB      15              0.0000000000
      2080        21  POPC      C216           12.0736875999       30.4046807694       44.7979615477  MEMB      15              0.0000000000
      2081        21  POPC      H16R           12.1832236501       31.4938597770       44.9961626591  MEMB      15              0.0000000000
      2082        21  POPC      H16S           11.0565203896       30.2510049472       44.3774555797  MEMB      15              0.0000000000
      2083        21  POPC      C217           13.1108300380       29.9564895816       43.7574592629  MEMB      15              0.0000000000
      2084        21  POPC      H17R           13.0203536166       28.8573273669       43.6037468790  MEMB      15              0.0000000000
      2085        21  POPC      H17S           14.1319289201       30.1527881759       44.1560570011  MEMB      15              0.0000000000
      2086        21  POPC      C218           12.9649263542       30.6588614833       42.4044004058  MEMB      15              0.0000000000
      2087        21  POPC      H18R           13.7921002361       30.3588402811       41.7249915642  MEMB      15              0.0000000000
      2088        21  POPC      H18S           12.9904407300       31.7611249092       42.5309176152  MEMB      15              0.0000000000
      2089        21  POPC      H18T           12.0071163197       30.3902574384       41.9145401780  MEMB      15              0.0000000000
      2090        21  POPC      C33            13.1325206511       32.6961321153       54.9421236566  MEMB      15              0.0000000000
      2091        21  POPC      H3X            12.0377400220       32.7730498752       54.7406950246  MEMB      15              0.0000000000
      2092        21  POPC      H3Y            13.4233057983       31.6467065662       54.7197671075  MEMB      15              0.0000000000
      2093        21  POPC      C34            13.8208719590       33.6424602481       53.9571459799  MEMB      15              0.0000000000
      2094        21  POPC      H4X            14.9151583722       33.6333084760       54.1441081232  MEMB      15              0.0000000000
      2095        21  POPC      H4Y            13.4676021402       34.6830369455       54.1317568316  MEMB      15              0.0000000000
      2096        21  POPC      C35            13.5002668964       33.2159363026       52.5175451214  MEMB      15              0.0000000000
      2097        21  POPC      H5X            12.3972779826       33.1177833422       52.4097628985  MEMB      15              0.0000000000
      2098        21  POPC      H5Y            13.9303893571       32.2177779733       52.3287170933  MEMB      15              0.0000000000
      2099        21  POPC      C36            14.0393323271       34.1456759091       51.4324608812  MEMB      15              0.0000000000
      2100        21  POPC      H6X            13.6948206099       35.1803804850       51.6613036986  MEMB      15              0.0000000000
      2101        21  POPC      H6Y            13.5866212560       33.8673852695       50.4595217322  MEMB      15              0.0000000000
      2102        21  POPC      C37            15.5744162943       34.1361833192       51.3425192855  MEMB      15              0.0000000000
      2103        21  POPC      H7X            16.0189191231       33.8292789052       52.3127400937  MEMB      15              0.0000000000
      2104        21  POPC      H7Y            15.8445412090       35.1945803841       51.1771877213  MEMB      15              0.0000000000
      2105        21  POPC      C38            16.2187106417       33.3112795788       50.2077868291  MEMB      15              0.0000000000
      2106        21  POPC      H8X            15.9904195589       32.2347187809       50.3647832894  MEMB      15              0.0000000000
      2107        21  POPC      H8Y            17.3236697315       33.4374091261       50.2566185877  MEMB      15              0.0000000000
      2108        21  POPC      C39            15.7375714385       33.7455941454       48.8192354457  MEMB      15              0.0000000000
      2109        21  POPC      H9X            15.8235423003       34.8490671552       48.7207131084  MEMB      15              0.0000000000
      2110        21  POPC      H9Y            14.6668912757       33.4875209011       48.7726891590  MEMB      15              0.0000000000
      2111        21  POPC      C310           16.4274959524       33.0883969974       47.6147414094  MEMB      15              0.0000000000
      2112        21  POPC      H10X           16.4744951895       31.9855839524       47.7565264118  MEMB      15              0.0000000000
      2113        21  POPC      H10Y           17.4659311984       33.4764446434       47.5358841507  MEMB      15              0.0000000000
      2114        21  POPC      C311           15.6592263704       33.3911280840       46.3163147653  MEMB      15              0.0000000000
      2115        21  POPC      H11X           15.3481728924       34.4603863945       46.3159660945  MEMB      15              0.0000000000
      2116        21  POPC      H11Y           14.7329972005       32.7743125233       46.2925113388  MEMB      15              0.0000000000
      2117        21  POPC      C312           16.4478137016       33.1255646955       45.0312018102  MEMB      15              0.0000000000
      2118        21  POPC      H12X           16.8306532232       32.0802296274       45.0378240779  MEMB      15              0.0000000000
      2119        21  POPC      H12Y           17.3187967649       33.8154398034       44.9883520230  MEMB      15              0.0000000000
      2120        21  POPC      C313           15.5702715397       33.3343834777       43.7894900112  MEMB      15              0.0000000000
      2121        21  POPC      H13X           15.1429837590       34.3628884830       43.8085319857  MEMB      15              0.0000000000
      2122        21  POPC      H13Y           14.7194904020       32.6181914958       43.8268127327  MEMB      15              0.0000000000
      2123        21  POPC      C314           16.3368583811       33.1415225919       42.4789878930  MEMB      15              0.0000000000
      2124        21  POPC      H14X           16.7838557145       32.1215355787       42.4602417833  MEMB      15              0.0000000000
      2125        21  POPC      H14Y           17.1738818361       33.8703632933       42.4386408817  MEMB      15              0.0000000000
      2126        21  POPC      C315           15.4487659664       33.3124869962       41.2415503900  MEMB      15              0.0000000000
      2127        21  POPC      H15X           14.8902738235       34.2727885445       41.3006061716  MEMB      15              0.0000000000
      2128        21  POPC      H15Y           14.6988524866       32.4917379544       41.2339375339  MEMB      15              0.0000000000
      2129        21  POPC      C316           16.2437216349       33.2469704011       39.9397686655  MEMB      15              0.0000000000
      2130        21  POPC      H16X           15.5744735538       33.0903675810       39.0665393052  MEMB      15              0.0000000000
      2131        21  POPC      H16Y           16.9532060170       32.3958088732       40.0031303188  MEMB      15              0.0000000000
      2132        21  POPC      H16Z           16.8355969280       34.1718409055       39.7734581813  MEMB      15              0.0000000000
      2133        22  POPS      N              44.6907999683       15.0420248887       62.3273589544  MEMB      16              0.0000000000
      2134        22  POPS      HN1            44.4037882180       14.4153521322       63.0887400297  MEMB      16              0.0000000000
      2135        22  POPS      HN2            45.2983759496       14.4850354698       61.6658747207  MEMB      16              0.0000000000
      2136        22  POPS      HN3            45.2860142912       15.8247260172       62.6940940909  MEMB      16              0.0000000000
      2137        22  POPS      C12            43.5411367070       15.7301674864       61.6243718132  MEMB      16              0.0000000000
      2138        22  POPS      H12A           43.3359098078       15.2051708291       60.7017690621  MEMB      16              0.0000000000
      2139        22  POPS      C13            43.9802772809       17.1761996741       61.2987516544  MEMB      16              0.0000000000
      2140        22  POPS      O13A           44.9566668907       17.6569665128       61.9538069268  MEMB      16              0.0000000000
      2141        22  POPS      O13B           43.3537773530       17.8168411543       60.4188081717  MEMB      16              0.0000000000
      2142        22  POPS      C11            42.2278100698       15.7884434483       62.5052264958  MEMB      16              0.0000000000
      2143        22  POPS      H11A           42.3336701968       16.6004207397       63.2629098646  MEMB      16              0.0000000000
      2144        22  POPS      H11B           42.1251495521       14.8327165646       63.0641084887  MEMB      16              0.0000000000
      2145        22  POPS      P              39.9408014655       17.0914535739       61.8334529373  MEMB      16              0.0000000000
      2146        22  POPS      O13            40.4867258362       18.4461867898       62.0177859500  MEMB      16              0.0000000000
      2147        22  POPS      O14            39.0044409340       16.6400850818       62.8981704404  MEMB      16              0.0000000000
      2148        22  POPS      O12            41.0563196204       15.9480745035       61.6988037955  MEMB      16              0.0000000000
      2149        22  POPS      O11            39.1668925600       17.0544809566       60.4603997300  MEMB      16              0.0000000000
      2150        22  POPS      C1             39.3234320253       16.0112145558       59.5161327139  MEMB      16              0.0000000000
      2151        22  POPS      HA             38.4172816587       16.0190873851       58.8744278774  MEMB      16              0.0000000000
      2152        22  POPS      HB             39.3598804456       15.0103683881       60.0037804296  MEMB      16              0.0000000000
      2153        22  POPS      C2             40.5572679411       16.1669531465       58.5706022174  MEMB      16              0.0000000000
      2154        22  POPS      HS             41.4720372289       15.9777313626       59.1767833137  MEMB      16              0.0000000000
      2155        22  POPS      O21            40.6204957875       17.5009127275       58.0031433029  MEMB      16              0.0000000000
      2156        22  POPS      C21            41.7747807661       17.7736942156       57.3946973528  MEMB      16              0.0000000000
      2157        22  POPS      O22            42.6295920243       16.9586009792       57.0891391649  MEMB      16              0.0000000000
      2158        22  POPS      C22            41.9078854186       19.2841111692       57.1591608851  MEMB      16              0.0000000000
      2159        22  POPS      H2R            42.9538688216       19.4630872426       56.8482059764  MEMB      16              0.0000000000
      2160        22  POPS      H2S            41.7717063454       19.7637671024       58.1518002334  MEMB      16              0.0000000000
      2161        22  POPS      C3             40.4149239870       15.0695269772       57.4858069619  MEMB      16              0.0000000000
      2162        22  POPS      HX             40.3697710051       14.0799965321       57.9934928792  MEMB      16              0.0000000000
      2163        22  POPS      HY             41.3096308762       15.0641975308       56.8232075688  MEMB      16              0.0000000000
      2164        22  POPS      O31            39.1838901037       15.3170133412       56.7769730059  MEMB      16              0.0000000000
      2165        22  POPS      C31            39.2057662261       14.9096445076       55.5248909642  MEMB      16              0.0000000000
      2166        22  POPS      O32            40.0310433953       14.1671225910       55.0261402001  MEMB      16              0.0000000000
      2167        22  POPS      C32            38.0907251750       15.5936884045       54.7410433238  MEMB      16              0.0000000000
      2168        22  POPS      H2X            37.6185669426       16.3542093689       55.3987583515  MEMB      16              0.0000000000
      2169        22  POPS      H2Y            37.3290705093       14.8383416930       54.4720080336  MEMB      16              0.0000000000
      2170        22  POPS      C23            40.9246194628       19.9097517634       56.1360991574  MEMB      16              0.0000000000
      2171        22  POPS      H3R            41.0734910261       21.0133648158       56.1615406016  MEMB      16              0.0000000000
      2172        22  POPS      H3S            39.8840496275       19.7070202141       56.4745295201  MEMB      16              0.0000000000
      2173        22  POPS      C24            41.0852343865       19.4448784378       54.6784026690  MEMB      16              0.0000000000
      2174        22  POPS      H4R            40.1727374422       19.7427653374       54.1114695041  MEMB      16              0.0000000000
      2175        22  POPS      H4S            41.1405865450       18.3360163426       54.6410497918  MEMB      16              0.0000000000
      2176        22  POPS      C25            42.2928687422       20.0619110846       53.9523313011  MEMB      16              0.0000000000
      2177        22  POPS      H5R            43.2204538495       19.8774783889       54.5372540853  MEMB      16              0.0000000000
      2178        22  POPS      H5S            42.1485221763       21.1636325580       53.8990205039  MEMB      16              0.0000000000
      2179        22  POPS      C26            42.4863319741       19.5260029212       52.5238274147  MEMB      16              0.0000000000
      2180        22  POPS      H6R            43.1904399671       20.2035458333       51.9875623839  MEMB      16              0.0000000000
      2181        22  POPS      H6S            41.5203211210       19.5497682453       51.9758329518  MEMB      16              0.0000000000
      2182        22  POPS      C27            43.0680527334       18.1055181806       52.4983792901  MEMB      16              0.0000000000
      2183        22  POPS      H7R            42.3391948578       17.3922865024       52.9451529336  MEMB      16              0.0000000000
      2184        22  POPS      H7S            43.9772570306       18.0973832978       53.1443848394  MEMB      16              0.0000000000
      2185        22  POPS      C28            43.4369659735       17.6415096523       51.0783608453  MEMB      16              0.0000000000
      2186        22  POPS      H8R            44.0293758528       18.4416443334       50.5813045147  MEMB      16              0.0000000000
      2187        22  POPS      H8S            42.5043946503       17.5318675838       50.4810692720  MEMB      16              0.0000000000
      2188        22  POPS      C29            44.2394921404       16.3674598642       51.1032332883  MEMB      16              0.0000000000
      2189        22  POPS      H91            45.3262274470       16.5160234681       51.1042292554  MEMB      16              0.0000000000
      2190        22  POPS      C210           43.7725271277       15.1114856584       51.1571213519  MEMB      16              0.0000000000
      2191        22  POPS      H101           44.4891696643       14.2767826793       51.1536201924  MEMB      16              0.0000000000
      2192        22  POPS      C211           42.3246936657       14.7120885563       51.2066005005  MEMB      16              0.0000000000
      2193        22  POPS      H11R           41.6479025968       15.5918678725       51.1317084282  MEMB      16              0.0000000000
      2194        22  POPS      H11S           42.1082274795       14.2437223723       52.1935343276  MEMB      16              0.0000000000
      2195        22  POPS      C212           41.9393731491       13.7138480952       50.1005789287  MEMB      16              0.0000000000
      2196        22  POPS      H12R           40.8640487990       13.4955437834       50.2494738208  MEMB      16              0.0000000000
      2197        22  POPS      H12S           42.4970832608       12.7604147812       50.2313013587  MEMB      16              0.0000000000
      2198        22  POPS      C213           42.0958189838       14.2236687302       48.6588839010  MEMB      16              0.0000000000
      2199        22  POPS      H13R           41.8568130664       13.3923948049       47.9563593068  MEMB      16              0.0000000000
      2200        22  POPS      H13S           43.1554056972       14.5146539948       48.4831850267  MEMB      16              0.0000000000
      2201        22  POPS      C214           41.1878744338       15.4167672899       48.3116693143  MEMB      16              0.0000000000
      2202        22  POPS      H14R           41.4577734881       15.7354267611       47.2862021784  MEMB      16              0.0000000000
      2203        22  POPS      H14S           41.3896243170       16.2604948039       49.0048413954  MEMB      16              0.0000000000
      2204        22  POPS      C215           39.6891525613       15.0876773580       48.2865565066  MEMB      16              0.0000000000
      2205        22  POPS      H15R           39.4248651312       14.5909862783       49.2445270442  MEMB      16              0.0000000000
      2206        22  POPS      H15S           39.5012092903       14.3744379948       47.4534226614  MEMB      16              0.0000000000
      2207        22  POPS      C216           38.7229466740       16.2764428212       48.1637934634  MEMB      16              0.0000000000
      2208        22  POPS      H16R           38.4757051795       16.6118302012       49.1945561397  MEMB      16              0.0000000000
      2209        22  POPS      H16S           37.7810485625       15.9309457613       47.6835013445  MEMB      16              0.0000000000
      2210        22  POPS      C217           39.2063797658       17.5029606674       47.3985320554  MEMB      16              0.0000000000
      2211        22  POPS      H17R           40.1842391593       17.8474769274       47.8017056401  MEMB      16              0.0000000000
      2212        22  POPS      H17S           38.4618470802       18.3074128462       47.6067041857  MEMB      16              0.0000000000
      2213        22  POPS      C218           39.2709003377       17.3353507346       45.8839006040  MEMB      16              0.0000000000
      2214        22  POPS      H18R           38.2748890093       17.0503962669       45.4936449497  MEMB      16              0.0000000000
      2215        22  POPS      H18S           40.0150550761       16.5648075503       45.6003493695  MEMB      16              0.0000000000
      2216        22  POPS      H18T           39.5416304896       18.2907341028       45.3952569140  MEMB      16              0.0000000000
      2217        22  POPS      C33            38.6551952774       16.2703521908       53.4708321806  MEMB      16              0.0000000000
      2218        22  POPS      H3X            38.6013399921       15.5660337396       52.6094925484  MEMB      16              0.0000000000
      2219        22  POPS      H3Y            39.7335028716       16.5270767329       53.6034063764  MEMB      16              0.0000000000
      2220        22  POPS      C34            37.9230901171       17.5742167151       53.1401660763  MEMB      16              0.0000000000
      2221        22  POPS      H4X            38.0392036327       18.2873685790       53.9868481504  MEMB      16              0.0000000000
      2222        22  POPS      H4Y            36.8388252444       17.3584123860       53.0324164534  MEMB      16              0.0000000000
      2223        22  POPS      C35            38.4497015939       18.2146978156       51.8507909711  MEMB      16              0.0000000000
      2224        22  POPS      H5X            38.2693820737       17.5086532196       51.0146303027  MEMB      16              0.0000000000
      2225        22  POPS      H5Y            39.5492081142       18.3619978189       51.9249491181  MEMB      16              0.0000000000
      2226        22  POPS      C36            37.7781933835       19.5481318562       51.5086014531  MEMB      16              0.0000000000
      2227        22  POPS      H6X            38.0936226034       20.3222189937       52.2434524308  MEMB      16              0.0000000000
      2228        22  POPS      H6Y            36.6745333000       19.4328087759       51.6055950029  MEMB      16              0.0000000000
      2229        22  POPS      C37            38.1080127866       20.0264119263       50.0829099155  MEMB      16              0.0000000000
      2230        22  POPS      H7X            37.5192691493       20.9522709570       49.9023055769  MEMB      16              0.0000000000
      2231        22  POPS      H7Y            37.7514828710       19.2777443740       49.3471187900  MEMB      16              0.0000000000
      2232        22  POPS      C38            39.5984799283       20.3432812364       49.8515285283  MEMB      16              0.0000000000
      2233        22  POPS      H8X            40.1943283158       19.4166942245       49.7224611082  MEMB      16              0.0000000000
      2234        22  POPS      H8Y            39.9584534301       20.8418816557       50.7835250548  MEMB      16              0.0000000000
      2235        22  POPS      C39            39.8419559064       21.3410267473       48.7034034759  MEMB      16              0.0000000000
      2236        22  POPS      H9X            40.6257067397       22.0725788341       49.0030565274  MEMB      16              0.0000000000
      2237        22  POPS      H9Y            38.8999972973       21.9157318399       48.5403574142  MEMB      16              0.0000000000
      2238        22  POPS      C310           40.2466767697       20.7591570606       47.3445099125  MEMB      16              0.0000000000
      2239        22  POPS      H10X           40.0324210244       21.5599058704       46.6128241644  MEMB      16              0.0000000000
      2240        22  POPS      H10Y           39.5659688766       19.9410499852       47.0672636872  MEMB      16              0.0000000000
      2241        22  POPS      C311           41.7220179633       20.3231419509       47.2278146672  MEMB      16              0.0000000000
      2242        22  POPS      H11X           41.8923803527       19.4838357464       47.9380155630  MEMB      16              0.0000000000
      2243        22  POPS      H11Y           42.3777522337       21.1685945791       47.5340130976  MEMB      16              0.0000000000
      2244        22  POPS      C312           42.1172002342       19.8813737996       45.8010645720  MEMB      16              0.0000000000
      2245        22  POPS      H12X           42.2770496328       20.7821555789       45.1706683471  MEMB      16              0.0000000000
      2246        22  POPS      H12Y           41.2737248456       19.3187910318       45.3542263394  MEMB      16              0.0000000000
      2247        22  POPS      C313           43.3581726968       18.9731235703       45.6911956883  MEMB      16              0.0000000000
      2248        22  POPS      H13X           44.2392939232       19.4717445266       46.1481397060  MEMB      16              0.0000000000
      2249        22  POPS      H13Y           43.5736594868       18.8286090486       44.6073599306  MEMB      16              0.0000000000
      2250        22  POPS      C314           43.1492932703       17.5880828989       46.3269686899  MEMB      16              0.0000000000
      2251        22  POPS      H14X           42.0735479954       17.4875582112       46.5737461793  MEMB      16              0.0000000000
      2252        22  POPS      H14Y           43.7029914126       17.5549881652       47.2927837044  MEMB      16              0.0000000000
      2253        22  POPS      C315           43.5745421776       16.3954430550       45.4462692988  MEMB      16              0.0000000000
      2254        22  POPS      H15X           43.9172910309       15.5764958073       46.1219071690  MEMB      16              0.0000000000
      2255        22  POPS      H15Y           44.4463487576       16.6921574901       44.8212741700  MEMB      16              0.0000000000
      2256        22  POPS      C316           42.4669690404       15.8189411309       44.5569126816  MEMB      16              0.0000000000
      2257        22  POPS      H16X           41.7973555258       15.1493142983       45.1383900551  MEMB      16              0.0000000000
      2258        22  POPS      H16Y           42.8983057326       15.2250014757       43.7225138123  MEMB      16              0.0000000000
      2259        22  POPS      H16Z           41.8456708777       16.6363110932       44.1326701728  MEMB      16              0.0000000000
      2260        23  POPS      N              21.3762620853       15.4535732409       62.7552551087  MEMB      17              0.0000000000
      2261        23  POPS      HN1            21.0467187677       16.3277794842       63.2398639213  MEMB      17              0.0000000000
      2262        23  POPS      HN2            21.3522653961       14.6114336257       63.3648389823  MEMB      17              0.0000000000
      2263        23  POPS      HN3            22.2750829627       15.6177967911       62.2317220215  MEMB      17              0.0000000000
      2264        23  POPS      C12            20.3847947595       15.3424785298       61.6485428318  MEMB      17              0.0000000000
      2265        23  POPS      H12A           19.8834992714       14.3912576570       61.7304603215  MEMB      17              0.0000000000
      2266        23  POPS      C13            21.1073039586       15.3541527396       60.2902920709  MEMB      17              0.0000000000
      2267        23  POPS      O13A           22.3542470445       15.5438512796       60.2994385224  MEMB      17              0.0000000000
      2268        23  POPS      O13B           20.4277682672       15.1553963677       59.2524682814  MEMB      17              0.0000000000
      2269        23  POPS      C11            19.3991168385       16.5517617772       61.7806859977  MEMB      17              0.0000000000
      2270        23  POPS      H11A           18.3674968914       16.1578908369       61.8936973974  MEMB      17              0.0000000000
      2271        23  POPS      H11B           19.3873904022       17.1047058783       60.8055038655  MEMB      17              0.0000000000
      2272        23  POPS      P              19.0434211345       18.8389027274       62.9572895076  MEMB      17              0.0000000000
      2273        23  POPS      O13            19.1767352605       19.2843504550       64.3678590227  MEMB      17              0.0000000000
      2274        23  POPS      O14            17.6797926756       18.6511717725       62.4513327484  MEMB      17              0.0000000000
      2275        23  POPS      O12            19.7405949913       17.4172261369       62.8996718373  MEMB      17              0.0000000000
      2276        23  POPS      O11            19.9286022568       19.7372681250       62.0266061555  MEMB      17              0.0000000000
      2277        23  POPS      C1             21.0434719746       19.3128665854       61.2390311771  MEMB      17              0.0000000000
      2278        23  POPS      HA             21.1146420817       18.2187434067       61.0647800141  MEMB      17              0.0000000000
      2279        23  POPS      HB             21.9888974560       19.6129520068       61.7396661970  MEMB      17              0.0000000000
      2280        23  POPS      C2             20.9884040036       19.9640817552       59.8391548171  MEMB      17              0.0000000000
      2281        23  POPS      HS             20.7031076051       21.0308930055       60.0024358822  MEMB      17              0.0000000000
      2282        23  POPS      O21            20.0744753366       19.2191416185       58.9968908939  MEMB      17              0.0000000000
      2283        23  POPS      C21            18.9979760828       19.8757997761       58.6516156967  MEMB      17              0.0000000000
      2284        23  POPS      O22            18.6629277174       20.9688778412       59.0696833880  MEMB      17              0.0000000000
      2285        23  POPS      C22            18.2754414525       19.1366007723       57.5207318880  MEMB      17              0.0000000000
      2286        23  POPS      H2R            17.2292505836       18.9784389648       57.8541135633  MEMB      17              0.0000000000
      2287        23  POPS      H2S            18.7519733003       18.1519902761       57.3566899161  MEMB      17              0.0000000000
      2288        23  POPS      C3             22.3957557025       19.9902617423       59.1770666922  MEMB      17              0.0000000000
      2289        23  POPS      HX             23.1556662209       20.2071198417       59.9590617813  MEMB      17              0.0000000000
      2290        23  POPS      HY             22.4579565129       20.8289111937       58.4481964051  MEMB      17              0.0000000000
      2291        23  POPS      O31            22.7057017847       18.7177118484       58.5887561839  MEMB      17              0.0000000000
      2292        23  POPS      C31            22.3194645968       18.5702988307       57.3326693794  MEMB      17              0.0000000000
      2293        23  POPS      O32            21.8696697741       19.4446269631       56.6055880346  MEMB      17              0.0000000000
      2294        23  POPS      C32            22.5293917159       17.1142109317       56.9106115581  MEMB      17              0.0000000000
      2295        23  POPS      H2X            22.0972892336       16.4752533868       57.7129359397  MEMB      17              0.0000000000
      2296        23  POPS      H2Y            23.6196726983       16.9193300108       56.8674681317  MEMB      17              0.0000000000
      2297        23  POPS      C23            18.2941886193       19.9915153107       56.2267092879  MEMB      17              0.0000000000
      2298        23  POPS      H3R            19.3385773908       20.1206115532       55.8660744278  MEMB      17              0.0000000000
      2299        23  POPS      H3S            17.9192188094       21.0025075023       56.4825216762  MEMB      17              0.0000000000
      2300        23  POPS      C24            17.4149705701       19.4514884258       55.0872060174  MEMB      17              0.0000000000
      2301        23  POPS      H4R            16.4658075268       19.0739315483       55.5213389067  MEMB      17              0.0000000000
      2302        23  POPS      H4S            17.9380970509       18.5848344111       54.6292479860  MEMB      17              0.0000000000
      2303        23  POPS      C25            17.0656749388       20.4851839681       53.9889427870  MEMB      17              0.0000000000
      2304        23  POPS      H5R            16.4086629647       21.2882730044       54.3788106109  MEMB      17              0.0000000000
      2305        23  POPS      H5S            16.4764808062       19.9767895192       53.1946553551  MEMB      17              0.0000000000
      2306        23  POPS      C26            18.2710332857       21.1985772254       53.3554777268  MEMB      17              0.0000000000
      2307        23  POPS      H6R            18.7836099999       21.8199311584       54.1253681378  MEMB      17              0.0000000000
      2308        23  POPS      H6S            17.8950122097       21.9010338386       52.5752969623  MEMB      17              0.0000000000
      2309        23  POPS      C27            19.2688794665       20.2348199756       52.7024324764  MEMB      17              0.0000000000
      2310        23  POPS      H7R            19.7679128555       19.6383954850       53.5006122554  MEMB      17              0.0000000000
      2311        23  POPS      H7S            20.0568690904       20.8324041198       52.1891943942  MEMB      17              0.0000000000
      2312        23  POPS      C28            18.5768541949       19.2987560168       51.6969177737  MEMB      17              0.0000000000
      2313        23  POPS      H8R            18.0004692566       19.9113654527       50.9698603869  MEMB      17              0.0000000000
      2314        23  POPS      H8S            17.8398392133       18.6626534383       52.2323854832  MEMB      17              0.0000000000
      2315        23  POPS      C29            19.5607094532       18.3845255589       51.0333667872  MEMB      17              0.0000000000
      2316        23  POPS      H91            20.0000940811       17.6387098177       51.7124818373  MEMB      17              0.0000000000
      2317        23  POPS      C210           19.9553504757       18.4044909768       49.7521255602  MEMB      17              0.0000000000
      2318        23  POPS      H101           20.6594860831       17.6298454619       49.4185345980  MEMB      17              0.0000000000
      2319        23  POPS      C211           19.5113655939       19.3504174490       48.6685713681  MEMB      17              0.0000000000
      2320        23  POPS      H11R           18.9227919778       20.2051607734       49.0710897709  MEMB      17              0.0000000000
      2321        23  POPS      H11S           18.8638629443       18.8192665115       47.9359228941  MEMB      17              0.0000000000
      2322        23  POPS      C212           20.7318184927       19.9207797154       47.9254389267  MEMB      17              0.0000000000
      2323        23  POPS      H12R           21.3922791544       20.4607743620       48.6402783487  MEMB      17              0.0000000000
      2324        23  POPS      H12S           20.3596037805       20.6652738386       47.1880094979  MEMB      17              0.0000000000
      2325        23  POPS      C213           21.5624401285       18.8644223474       47.1726142990  MEMB      17              0.0000000000
      2326        23  POPS      H13R           20.8798174122       18.1763284120       46.6306858570  MEMB      17              0.0000000000
      2327        23  POPS      H13S           22.1288253306       18.2589867310       47.9128407855  MEMB      17              0.0000000000
      2328        23  POPS      C214           22.5379694371       19.5066269263       46.1743637134  MEMB      17              0.0000000000
      2329        23  POPS      H14R           23.1812253203       20.2094342098       46.7376595139  MEMB      17              0.0000000000
      2330        23  POPS      H14S           21.9529969519       20.1176788697       45.4495783960  MEMB      17              0.0000000000
      2331        23  POPS      C215           23.4232955407       18.5294603050       45.3766727557  MEMB      17              0.0000000000
      2332        23  POPS      H15R           24.1759928347       19.1182996897       44.8047952317  MEMB      17              0.0000000000
      2333        23  POPS      H15S           22.7895860894       18.0079284102       44.6318501990  MEMB      17              0.0000000000
      2334        23  POPS      C216           24.1494493062       17.4460438166       46.1906371976  MEMB      17              0.0000000000
      2335        23  POPS      H16R           23.4112774541       16.8786224854       46.8000915392  MEMB      17              0.0000000000
      2336        23  POPS      H16S           24.8803383948       17.9128696656       46.8847683723  MEMB      17              0.0000000000
      2337        23  POPS      C217           24.8751086759       16.4433385207       45.2796099930  MEMB      17              0.0000000000
      2338        23  POPS      H17R           25.5826379415       17.0009323687       44.6244151317  MEMB      17              0.0000000000
      2339        23  POPS      H17S           24.1205496492       15.9607292558       44.6186536235  MEMB      17              0.0000000000
      2340        23  POPS      C218           25.6385811186       15.3508029829       46.0316588833  MEMB      17              0.0000000000
      2341        23  POPS      H18R           24.9449793035       14.7341230736       46.6425397328  MEMB      17              0.0000000000
      2342        23  POPS      H18S           26.3981343986       15.8052546099       46.7033217958  MEMB      17              0.0000000000
      2343        23  POPS      H18T           26.1616384403       14.6847267408       45.3117493289  MEMB      17              0.0000000000
      2344        23  POPS      C33            21.8557949790       16.7839951276       55.5547968571  MEMB      17              0.0000000000
      2345        23  POPS      H3X            22.3037903136       17.4060121051       54.7497165401  MEMB      17              0.0000000000
      2346        23  POPS      H3Y            20.7721628300       17.0350244803       55.6259445812  MEMB      17              0.0000000000
      2347        23  POPS      C34            21.9878606499       15.2951374418       55.1850938904  MEMB      17              0.0000000000
      2348        23  POPS      H4X            21.4118865897       14.7075141897       55.9390722287  MEMB      17              0.0000000000
      2349        23  POPS      H4Y            23.0548407703       14.9955863200       55.2832180088  MEMB      17              0.0000000000
      2350        23  POPS      C35            21.4903353886       14.9337059025       53.7703171849  MEMB      17              0.0000000000
      2351        23  POPS      H5X            21.6166220895       13.8372989776       53.6257760245  MEMB      17              0.0000000000
      2352        23  POPS      H5Y            22.1225401825       15.4516606078       53.0157022856  MEMB      17              0.0000000000
      2353        23  POPS      C36            20.0171945111       15.3003232606       53.5307241849  MEMB      17              0.0000000000
      2354        23  POPS      H6X            19.9264029801       16.4089665475       53.5297545781  MEMB      17              0.0000000000
      2355        23  POPS      H6Y            19.4183552691       14.9254285995       54.3933826890  MEMB      17              0.0000000000
      2356        23  POPS      C37            19.3877958592       14.7413249175       52.2388000961  MEMB      17              0.0000000000
      2357        23  POPS      H7X            18.4248462071       15.2811453089       52.0814106189  MEMB      17              0.0000000000
      2358        23  POPS      H7Y            19.1354500000       13.6668771044       52.3831561564  MEMB      17              0.0000000000
      2359        23  POPS      C38            20.2330886652       14.8648986151       50.9558618659  MEMB      17              0.0000000000
      2360        23  POPS      H8X            21.0043779767       14.0643366162       50.9556675832  MEMB      17              0.0000000000
      2361        23  POPS      H8Y            20.7643752810       15.8370843852       50.9356871231  MEMB      17              0.0000000000
      2362        23  POPS      C39            19.3524352222       14.7440116830       49.7008718090  MEMB      17              0.0000000000
      2363        23  POPS      H9X            18.5682674274       15.5337947462       49.7310767660  MEMB      17              0.0000000000
      2364        23  POPS      H9Y            18.8303092497       13.7606388368       49.7407766723  MEMB      17              0.0000000000
      2365        23  POPS      C310           20.0919411746       14.8511523004       48.3560717547  MEMB      17              0.0000000000
      2366        23  POPS      H10X           20.9290691272       14.1225056815       48.3384078233  MEMB      17              0.0000000000
      2367        23  POPS      H10Y           20.5316558488       15.8620749408       48.2244840341  MEMB      17              0.0000000000
      2368        23  POPS      C311           19.1227144435       14.5680484802       47.1952398862  MEMB      17              0.0000000000
      2369        23  POPS      H11X           18.4165853467       15.4158690390       47.1254780665  MEMB      17              0.0000000000
      2370        23  POPS      H11Y           18.5127083206       13.6751013720       47.4652097324  MEMB      17              0.0000000000
      2371        23  POPS      C312           19.7805913824       14.2852347601       45.8329056854  MEMB      17              0.0000000000
      2372        23  POPS      H12X           19.0274004908       13.7954420486       45.1721066179  MEMB      17              0.0000000000
      2373        23  POPS      H12Y           20.6206977493       13.5679230284       45.9630254567  MEMB      17              0.0000000000
      2374        23  POPS      C313           20.3013805673       15.5316237268       45.1096474206  MEMB      17              0.0000000000
      2375        23  POPS      H13X           20.7708638581       15.2059280326       44.1550083215  MEMB      17              0.0000000000
      2376        23  POPS      H13Y           21.0899005865       16.0133042917       45.7304924816  MEMB      17              0.0000000000
      2377        23  POPS      C314           19.1985972095       16.5517606038       44.7981523904  MEMB      17              0.0000000000
      2378        23  POPS      H14X           18.7598726873       16.9094706283       45.7559503109  MEMB      17              0.0000000000
      2379        23  POPS      H14Y           18.3841112780       16.0762037243       44.2080632636  MEMB      17              0.0000000000
      2380        23  POPS      C315           19.7192306516       17.7788820954       44.0516037949  MEMB      17              0.0000000000
      2381        23  POPS      H15X           19.6056365907       17.6235917016       42.9551644358  MEMB      17              0.0000000000
      2382        23  POPS      H15Y           20.8011274120       17.8923548180       44.2658018908  MEMB      17              0.0000000000
      2383        23  POPS      C316           19.0288256856       19.0656934046       44.4792061900  MEMB      17              0.0000000000
      2384        23  POPS      H16X           17.9301270226       18.9384276717       44.3951180675  MEMB      17              0.0000000000
      2385        23  POPS      H16Y           19.3552007369       19.9133128666       43.8399567481  MEMB      17              0.0000000000
      2386        23  POPS      H16Z           19.2641900809       19.3167345787       45.5342991086  MEMB      17              0.0000000000
      2387        24  POPC      N              44.4037253426       51.2173149554       61.4328122879  MEMB      18              0.0000000000
      2388        24  POPC      C12            44.3342842053       49.7066575029       61.2488484971  MEMB      18              0.0000000000
      2389        24  POPC      H12A           45.3428257884       49.3137089582       61.1992878647  MEMB      18              0.0000000000
      2390        24  POPC      H12B           43.8653141260       49.4799131778       60.2888744633  MEMB      18              0.0000000000
      2391        24  POPC      C13            44.7631780940       51.5299121021       62.8551601981  MEMB      18              0.0000000000
      2392        24  POPC      H13A           45.8090690999       51.3239837096       63.0502705276  MEMB      18              0.0000000000
      2393        24  POPC      H13B           44.5222569809       52.5455634502       63.1303911529  MEMB      18              0.0000000000
      2394        24  POPC      H13C           44.1883604850       50.8815335731       63.5082740114  MEMB      18              0.0000000000
      2395        24  POPC      C14            45.4279429298       51.7852723485       60.5141255954  MEMB      18              0.0000000000
      2396        24  POPC      H14A           45.3003646908       51.5164100447       59.4746018412  MEMB      18              0.0000000000
      2397        24  POPC      H14B           45.4430860530       52.8718233422       60.5573684890  MEMB      18              0.0000000000
      2398        24  POPC      H14C           46.4439680488       51.5173302983       60.8000394064  MEMB      18              0.0000000000
      2399        24  POPC      C15            43.0763822808       51.8431603439       61.1376389771  MEMB      18              0.0000000000
      2400        24  POPC      H15A           42.7031768827       51.5434583356       60.1648384451  MEMB      18              0.0000000000
      2401        24  POPC      H15B           43.1605081866       52.9161253868       61.1777739268  MEMB      18              0.0000000000
      2402        24  POPC      H15C           42.3606856220       51.4927350766       61.8780920448  MEMB      18              0.0000000000
      2403        24  POPC      C11            43.5986304418       48.9002561169       62.3430079215  MEMB      18              0.0000000000
      2404        24  POPC      H11A           44.1206479667       49.0432358423       63.3139601120  MEMB      18              0.0000000000
      2405        24  POPC      H11B           43.7057526625       47.8106963507       62.1137461901  MEMB      18              0.0000000000
      2406        24  POPC      P              41.1281700319       48.5465864488       61.6294335871  MEMB      18              0.0000000000
      2407        24  POPC      O13            39.8757662407       49.2796852242       61.9100183684  MEMB      18              0.0000000000
      2408        24  POPC      O14            41.2989503621       47.1120616681       61.9754383098  MEMB      18              0.0000000000
      2409        24  POPC      O12            42.2359481441       49.3133074230       62.4772370586  MEMB      18              0.0000000000
      2410        24  POPC      O11            41.6348456409       48.8466944696       60.1707164543  MEMB      18              0.0000000000
      2411        24  POPC      C1             40.8211415104       48.5229982295       59.0436103751  MEMB      18              0.0000000000
      2412        24  POPC      HA             40.1704124836       49.3849133988       58.7702296563  MEMB      18              0.0000000000
      2413        24  POPC      HB             40.1609150888       47.6387418077       59.2291745065  MEMB      18              0.0000000000
      2414        24  POPC      C2             41.7538474955       48.1910676978       57.8606632245  MEMB      18              0.0000000000
      2415        24  POPC      HS             42.3966819013       47.3461535917       58.1996986858  MEMB      18              0.0000000000
      2416        24  POPC      O21            42.5004509116       49.3656143955       57.4946904848  MEMB      18              0.0000000000
      2417        24  POPC      C21            43.7809003641       49.3185241207       57.6823014787  MEMB      18              0.0000000000
      2418        24  POPC      O22            44.4046363116       48.4944561930       58.3305840150  MEMB      18              0.0000000000
      2419        24  POPC      C22            44.4025403317       50.4025880352       56.8217711125  MEMB      18              0.0000000000
      2420        24  POPC      H2R            44.7423205410       51.2268433695       57.4755675139  MEMB      18              0.0000000000
      2421        24  POPC      H2S            43.6490466521       50.7982409167       56.1062463513  MEMB      18              0.0000000000
      2422        24  POPC      C3             41.0048015874       47.7171838825       56.5933394306  MEMB      18              0.0000000000
      2423        24  POPC      HX             40.2993453223       46.9106055575       56.8780765957  MEMB      18              0.0000000000
      2424        24  POPC      HY             41.7462615056       47.2840889375       55.8799066087  MEMB      18              0.0000000000
      2425        24  POPC      O31            40.2613515412       48.8093878403       56.0385776472  MEMB      18              0.0000000000
      2426        24  POPC      C31            40.7334941463       49.3891205330       54.9481974307  MEMB      18              0.0000000000
      2427        24  POPC      O32            41.6148084131       48.9645278266       54.2217986383  MEMB      18              0.0000000000
      2428        24  POPC      C32            39.8937391780       50.6685289469       54.7755402338  MEMB      18              0.0000000000
      2429        24  POPC      H2X            39.7453947905       51.0539039553       55.8101879218  MEMB      18              0.0000000000
      2430        24  POPC      H2Y            38.9028637115       50.3754982906       54.3716240888  MEMB      18              0.0000000000
      2431        24  POPC      C23            45.5678478720       49.7961831895       56.0289682317  MEMB      18              0.0000000000
      2432        24  POPC      H3R            46.2599684684       49.2281482360       56.6878904138  MEMB      18              0.0000000000
      2433        24  POPC      H3S            46.1252396297       50.6329904051       55.5651198753  MEMB      18              0.0000000000
      2434        24  POPC      C24            45.0759641868       48.9272910218       54.8797297102  MEMB      18              0.0000000000
      2435        24  POPC      H4R            44.1580321283       49.4022847885       54.4571514666  MEMB      18              0.0000000000
      2436        24  POPC      H4S            44.7882097611       47.9148276221       55.2383090557  MEMB      18              0.0000000000
      2437        24  POPC      C25            46.0735567509       48.8102413586       53.7245310930  MEMB      18              0.0000000000
      2438        24  POPC      H5R            46.9661429843       48.2223550239       54.0310712441  MEMB      18              0.0000000000
      2439        24  POPC      H5S            46.4121854367       49.8260623140       53.4187628112  MEMB      18              0.0000000000
      2440        24  POPC      C26            45.3541777556       48.1436772691       52.5543539947  MEMB      18              0.0000000000
      2441        24  POPC      H6R            44.3948724181       48.7007286398       52.4223987935  MEMB      18              0.0000000000
      2442        24  POPC      H6S            45.1014839931       47.0936094904       52.8289487479  MEMB      18              0.0000000000
      2443        24  POPC      C27            46.0928126960       48.1702645195       51.2098859555  MEMB      18              0.0000000000
      2444        24  POPC      H7R            46.7800037337       47.2976404519       51.1475576111  MEMB      18              0.0000000000
      2445        24  POPC      H7S            46.7147565569       49.0934639088       51.1657453186  MEMB      18              0.0000000000
      2446        24  POPC      C28            45.1162995329       48.2060151437       50.0140976696  MEMB      18              0.0000000000
      2447        24  POPC      H8R            45.7044026267       48.1186662187       49.0736962932  MEMB      18              0.0000000000
      2448        24  POPC      H8S            44.6497994697       49.2179274158       50.0181195814  MEMB      18              0.0000000000
      2449        24  POPC      C29            44.0194196434       47.1700258981       50.0833942943  MEMB      18              0.0000000000
      2450        24  POPC      H91            43.7108837370       46.8629569915       51.0954934460  MEMB      18              0.0000000000
      2451        24  POPC      C210           43.3822254852       46.6296894354       49.0352359664  MEMB      18              0.0000000000
      2452        24  POPC      H101           42.5762198543       45.9032014704       49.2235299371  MEMB      18              0.0000000000
      2453        24  POPC      C211           43.6402417033       46.9563658036       47.5894642633  MEMB      18              0.0000000000
      2454        24  POPC      H11R           44.5943074396       46.4868742774       47.2672097777  MEMB      18              0.0000000000
      2455        24  POPC      H11S           43.7449622196       48.0532709133       47.4368572758  MEMB      18              0.0000000000
      2456        24  POPC      C212           42.4923976380       46.4198151337       46.7157532999  MEMB      18              0.0000000000
      2457        24  POPC      H12R           41.5122217700       46.8268292335       47.0463547127  MEMB      18              0.0000000000
      2458        24  POPC      H12S           42.4539636714       45.3271227655       46.8390263562  MEMB      18              0.0000000000
      2459        24  POPC      C213           42.6681831616       46.6485321706       45.2116294277  MEMB      18              0.0000000000
      2460        24  POPC      H13R           42.8666300965       47.7247239547       45.0564534993  MEMB      18              0.0000000000
      2461        24  POPC      H13S           41.7140914489       46.3848251537       44.7003802449  MEMB      18              0.0000000000
      2462        24  POPC      C214           43.8012674062       45.7799148926       44.6425160223  MEMB      18              0.0000000000
      2463        24  POPC      H14R           43.6495075455       44.7494243187       45.0443250292  MEMB      18              0.0000000000
      2464        24  POPC      H14S           44.7687883541       46.1558834792       45.0333162858  MEMB      18              0.0000000000
      2465        24  POPC      C215           43.8481336925       45.6392210674       43.1098751207  MEMB      18              0.0000000000
      2466        24  POPC      H15R           42.8207535605       45.7801810448       42.7063499663  MEMB      18              0.0000000000
      2467        24  POPC      H15S           44.1446035460       44.6029898075       42.8571596910  MEMB      18              0.0000000000
      2468        24  POPC      C216           44.8174119207       46.5823703184       42.3815325253  MEMB      18              0.0000000000
      2469        24  POPC      H16R           45.2391309196       47.3334476251       43.0848123923  MEMB      18              0.0000000000
      2470        24  POPC      H16S           44.1930184996       47.1274264509       41.6401688921  MEMB      18              0.0000000000
      2471        24  POPC      C217           45.9431531355       45.9579181710       41.5452516475  MEMB      18              0.0000000000
      2472        24  POPC      H17R           45.6466202760       44.9895798917       41.1005247389  MEMB      18              0.0000000000
      2473        24  POPC      H17S           46.8258262622       45.7625520974       42.1926754871  MEMB      18              0.0000000000
      2474        24  POPC      C218           46.3313986648       46.8970913340       40.4040085947  MEMB      18              0.0000000000
      2475        24  POPC      H18R           47.2321378001       46.5375100153       39.8626374190  MEMB      18              0.0000000000
      2476        24  POPC      H18S           46.5287061522       47.8884574299       40.8558121107  MEMB      18              0.0000000000
      2477        24  POPC      H18T           45.5052366014       47.0281487398       39.6714539434  MEMB      18              0.0000000000
      2478        24  POPC      C33            40.4947233818       51.8404465764       53.9577340236  MEMB      18              0.0000000000
      2479        24  POPC      H3X            41.5950495588       51.9122843967       54.0815120394  MEMB      18              0.0000000000
      2480        24  POPC      H3Y            40.0742964272       52.7892697616       54.3643285524  MEMB      18              0.0000000000
      2481        24  POPC      C34            40.0925986926       51.8186109289       52.4811210817  MEMB      18              0.0000000000
      2482        24  POPC      H4X            40.3486150056       52.8062808809       52.0324479002  MEMB      18              0.0000000000
      2483        24  POPC      H4Y            38.9904634079       51.6848673651       52.3890373040  MEMB      18              0.0000000000
      2484        24  POPC      C35            40.8118358382       50.7191222581       51.7138708851  MEMB      18              0.0000000000
      2485        24  POPC      H5X            40.4474411151       49.7216097956       52.0474979045  MEMB      18              0.0000000000
      2486        24  POPC      H5Y            41.9010797250       50.7640011420       51.9493154991  MEMB      18              0.0000000000
      2487        24  POPC      C36            40.6302346549       50.8443384852       50.2046480389  MEMB      18              0.0000000000
      2488        24  POPC      H6X            41.0261516929       51.8273587508       49.8696849553  MEMB      18              0.0000000000
      2489        24  POPC      H6Y            39.5489304480       50.8132092519       49.9444895648  MEMB      18              0.0000000000
      2490        24  POPC      C37            41.3706662511       49.7085907073       49.4981417202  MEMB      18              0.0000000000
      2491        24  POPC      H7X            40.9373137219       48.7416325712       49.8416581754  MEMB      18              0.0000000000
      2492        24  POPC      H7Y            42.4402555223       49.7212189862       49.8012829671  MEMB      18              0.0000000000
      2493        24  POPC      C38            41.2783930743       49.7717232915       47.9784811100  MEMB      18              0.0000000000
      2494        24  POPC      H8X            40.2290812737       49.8979829555       47.6562108858  MEMB      18              0.0000000000
      2495        24  POPC      H8Y            41.6449142111       48.8246696452       47.5436573755  MEMB      18              0.0000000000
      2496        24  POPC      C39            42.0377422564       50.9183608720       47.3430114226  MEMB      18              0.0000000000
      2497        24  POPC      H9X            43.1323598582       50.8301185002       47.5177606924  MEMB      18              0.0000000000
      2498        24  POPC      H9Y            41.6939007272       51.8780767093       47.7908532610  MEMB      18              0.0000000000
      2499        24  POPC      C310           41.7288504584       50.9372736778       45.8486036340  MEMB      18              0.0000000000
      2500        24  POPC      H10X           40.6396787750       50.7636656470       45.6845176512  MEMB      18              0.0000000000
      2501        24  POPC      H10Y           42.2829979329       50.1169016372       45.3541486105  MEMB      18              0.0000000000
      2502        24  POPC      C311           42.0949465822       52.2949020285       45.2919718493  MEMB      18              0.0000000000
      2503        24  POPC      H11X           43.1373150963       52.5340478388       45.6116614265  MEMB      18              0.0000000000
      2504        24  POPC      H11Y           41.4515637344       53.0383254175       45.7994124547  MEMB      18              0.0000000000
      2505        24  POPC      C312           42.0236591326       52.4548867201       43.7695384008  MEMB      18              0.0000000000
      2506        24  POPC      H12X           42.9399554273       51.9918109916       43.3447047697  MEMB      18              0.0000000000
      2507        24  POPC      H12Y           42.0996368357       53.5530368760       43.6346530467  MEMB      18              0.0000000000
      2508        24  POPC      C313           40.8025449584       51.9545077397       42.9581710458  MEMB      18              0.0000000000
      2509        24  POPC      H13X           40.0861157069       51.4191183679       43.6087140195  MEMB      18              0.0000000000
      2510        24  POPC      H13Y           41.1666585450       51.2382301289       42.1893300420  MEMB      18              0.0000000000
      2511        24  POPC      C314           40.1075386226       53.0821091438       42.1759121538  MEMB      18              0.0000000000
      2512        24  POPC      H14X           40.8698462976       53.5964955076       41.5471368449  MEMB      18              0.0000000000
      2513        24  POPC      H14Y           39.7266524693       53.8026478632       42.9289131769  MEMB      18              0.0000000000
      2514        24  POPC      C315           38.9102424356       52.7223888427       41.2773892109  MEMB      18              0.0000000000
      2515        24  POPC      H15X           38.6175831759       53.6323930314       40.7152941809  MEMB      18              0.0000000000
      2516        24  POPC      H15Y           38.0447865561       52.4704418696       41.9284480727  MEMB      18              0.0000000000
      2517        24  POPC      C316           39.1290527879       51.6085743770       40.2592068076  MEMB      18              0.0000000000
      2518        24  POPC      H16X           39.0992885395       50.6578656926       40.7939184917  MEMB      18              0.0000000000
      2519        24  POPC      H16Y           40.1107424809       51.6873089883       39.7512576950  MEMB      18              0.0000000000
      2520        24  POPC      H16Z           38.3153473859       51.5827130772       39.5032505530  MEMB      18              0.0000000000
      2521        25  POPC      N              28.3117773611       52.4704860971       64.0347179372  MEMB      19              0.0000000000
      2522        25  POPC      C12            27.2830803427       52.2517659802       62.9248462286  MEMB      19              0.0000000000
      2523        25  POPC      H12A           26.2978704887       52.1303876887       63.3677552599  MEMB      19              0.0000000000
      2524        25  POPC      H12B           27.4895648723       51.3271712644       62.3991909820  MEMB      19              0.0000000000
      2525        25  POPC      C13            29.6594964089       51.9952906735       63.6059505109  MEMB      19              0.0000000000
      2526        25  POPC      H13A           29.8415348189       52.3295081655       62.5797924474  MEMB      19              0.0000000000
      2527        25  POPC      H13B           30.4469923224       52.4532160082       64.1904508900  MEMB      19              0.0000000000
      2528        25  POPC      H13C           29.7239002415       50.9248910080       63.6431384755  MEMB      19              0.0000000000
      2529        25  POPC      C14            28.4285950444       53.9429475427       64.2882016876  MEMB      19              0.0000000000
      2530        25  POPC      H14A           28.6334043644       54.4356761994       63.3327689266  MEMB      19              0.0000000000
      2531        25  POPC      H14B           27.5033691220       54.3396203859       64.6904142794  MEMB      19              0.0000000000
      2532        25  POPC      H14C           29.2275389225       54.1559215904       64.9811391001  MEMB      19              0.0000000000
      2533        25  POPC      C15            27.9283158643       51.8315608488       65.3204747982  MEMB      19              0.0000000000
      2534        25  POPC      H15A           28.7018500157       52.0223167853       66.0565194014  MEMB      19              0.0000000000
      2535        25  POPC      H15B           27.7831003899       50.7570982917       65.2649842559  MEMB      19              0.0000000000
      2536        25  POPC      H15C           27.0095641101       52.2837878630       65.6883827524  MEMB      19              0.0000000000
      2537        25  POPC      C11            27.1436783129       53.3733524151       61.8474285235  MEMB      19              0.0000000000
      2538        25  POPC      H11A           26.4865862321       54.1630279307       62.2735838200  MEMB      19              0.0000000000
      2539        25  POPC      H11B           26.5779642297       52.9719644539       60.9687864446  MEMB      19              0.0000000000
      2540        25  POPC      P              29.2143458018       53.4737111204       60.2388340401  MEMB      19              0.0000000000
      2541        25  POPC      O13            28.3055062412       52.9028016975       59.2281392371  MEMB      19              0.0000000000
      2542        25  POPC      O14            30.2853994773       52.6022349522       60.7771751774  MEMB      19              0.0000000000
      2543        25  POPC      O12            28.3859854231       53.9822298955       61.4771163747  MEMB      19              0.0000000000
      2544        25  POPC      O11            29.8685323086       54.8439383853       59.7611658913  MEMB      19              0.0000000000
      2545        25  POPC      C1             30.4283831148       55.7382950676       60.7405943084  MEMB      19              0.0000000000
      2546        25  POPC      HA             30.8475909723       55.1995857449       61.6260211611  MEMB      19              0.0000000000
      2547        25  POPC      HB             29.6226365457       56.4154130878       61.0989483509  MEMB      19              0.0000000000
      2548        25  POPC      C2             31.5880651928       56.6242354215       60.1686910692  MEMB      19              0.0000000000
      2549        25  POPC      HS             31.7165348380       57.5183484630       60.8243324184  MEMB      19              0.0000000000
      2550        25  POPC      O21            31.3308316206       57.0014302161       58.8172674713  MEMB      19              0.0000000000
      2551        25  POPC      C21            30.4421041066       57.9014028222       58.6385392141  MEMB      19              0.0000000000
      2552        25  POPC      O22            29.9747207533       58.6441275379       59.4967359803  MEMB      19              0.0000000000
      2553        25  POPC      C22            30.1305160349       57.9774035993       57.1259274530  MEMB      19              0.0000000000
      2554        25  POPC      H2R            30.9678112215       58.5410240595       56.6805510901  MEMB      19              0.0000000000
      2555        25  POPC      H2S            29.2162276715       58.5825956704       57.0206442021  MEMB      19              0.0000000000
      2556        25  POPC      C3             32.9572045290       55.8930673771       60.1478582246  MEMB      19              0.0000000000
      2557        25  POPC      HX             33.2968354449       55.8144695450       61.1993421444  MEMB      19              0.0000000000
      2558        25  POPC      HY             33.7048862201       56.5388154574       59.6257812603  MEMB      19              0.0000000000
      2559        25  POPC      O31            32.8635544642       54.5718367947       59.5608859679  MEMB      19              0.0000000000
      2560        25  POPC      C31            32.6971110016       54.5971129988       58.2294712559  MEMB      19              0.0000000000
      2561        25  POPC      O32            32.9825654237       55.5222826130       57.4939489243  MEMB      19              0.0000000000
      2562        25  POPC      C32            32.3275234743       53.2283024373       57.6823480944  MEMB      19              0.0000000000
      2563        25  POPC      H2X            32.5549162021       52.4444385873       58.4270328219  MEMB      19              0.0000000000
      2564        25  POPC      H2Y            33.0137851781       53.1541605369       56.8114428528  MEMB      19              0.0000000000
      2565        25  POPC      C23            29.9354510705       56.6406432691       56.3339806527  MEMB      19              0.0000000000
      2566        25  POPC      H3R            29.1483397731       56.0384663466       56.8371719437  MEMB      19              0.0000000000
      2567        25  POPC      H3S            30.8775292565       56.0509722890       56.3474009395  MEMB      19              0.0000000000
      2568        25  POPC      C24            29.5139541764       56.8906567414       54.8624245496  MEMB      19              0.0000000000
      2569        25  POPC      H4R            30.3916703617       57.2602520156       54.2896445949  MEMB      19              0.0000000000
      2570        25  POPC      H4S            28.7610439853       57.7082305892       54.8773110204  MEMB      19              0.0000000000
      2571        25  POPC      C25            28.8615479831       55.7256269238       54.0773077085  MEMB      19              0.0000000000
      2572        25  POPC      H5R            28.0745523150       55.2465668909       54.7034213782  MEMB      19              0.0000000000
      2573        25  POPC      H5S            29.6118688440       54.9383601323       53.8504038595  MEMB      19              0.0000000000
      2574        25  POPC      C26            28.1914894269       56.2276724660       52.7728590726  MEMB      19              0.0000000000
      2575        25  POPC      H6R            28.6485666779       57.1972480516       52.4705980577  MEMB      19              0.0000000000
      2576        25  POPC      H6S            27.1205768976       56.4363417437       53.0022955700  MEMB      19              0.0000000000
      2577        25  POPC      C27            28.2494078867       55.2809914574       51.5544993100  MEMB      19              0.0000000000
      2578        25  POPC      H7R            27.4178211801       55.5683843565       50.8666849010  MEMB      19              0.0000000000
      2579        25  POPC      H7S            28.0656022143       54.2315192230       51.8646381524  MEMB      19              0.0000000000
      2580        25  POPC      C28            29.5456938476       55.3991391208       50.7253463675  MEMB      19              0.0000000000
      2581        25  POPC      H8R            29.7787110081       56.4815415141       50.6182749456  MEMB      19              0.0000000000
      2582        25  POPC      H8S            29.3423268904       55.0292913912       49.6939911213  MEMB      19              0.0000000000
      2583        25  POPC      C29            30.6999299150       54.6148607584       51.3011164921  MEMB      19              0.0000000000
      2584        25  POPC      H91            30.6043495334       53.5225198631       51.2044460194  MEMB      19              0.0000000000
      2585        25  POPC      C210           31.7972381811       55.1157168997       51.8998327826  MEMB      19              0.0000000000
      2586        25  POPC      H101           32.5464254898       54.4120032266       52.2980266292  MEMB      19              0.0000000000
      2587        25  POPC      C211           32.1160423135       56.5744500391       52.1313197637  MEMB      19              0.0000000000
      2588        25  POPC      H11R           32.6995929305       56.6694180680       53.0763388476  MEMB      19              0.0000000000
      2589        25  POPC      H11S           31.1891427071       57.1713607996       52.2671972062  MEMB      19              0.0000000000
      2590        25  POPC      C212           32.9308796604       57.2380639263       51.0035201314  MEMB      19              0.0000000000
      2591        25  POPC      H12R           33.7896649484       56.5890055151       50.7687481996  MEMB      19              0.0000000000
      2592        25  POPC      H12S           33.3283491115       58.2176210305       51.3496694824  MEMB      19              0.0000000000
      2593        25  POPC      C213           32.1344237179       57.4438746163       49.7120406663  MEMB      19              0.0000000000
      2594        25  POPC      H13R           31.2577862433       58.0946422664       49.9194346141  MEMB      19              0.0000000000
      2595        25  POPC      H13S           31.7536744951       56.4478029467       49.3911537476  MEMB      19              0.0000000000
      2596        25  POPC      C214           32.9453333890       58.0167585532       48.5427645486  MEMB      19              0.0000000000
      2597        25  POPC      H14R           34.0036583158       57.7045844981       48.6508751146  MEMB      19              0.0000000000
      2598        25  POPC      H14S           32.9342725105       59.1240162477       48.6011001543  MEMB      19              0.0000000000
      2599        25  POPC      C215           32.4311891521       57.5202844753       47.1770548497  MEMB      19              0.0000000000
      2600        25  POPC      H15R           32.6359730513       56.4329315708       47.0881071764  MEMB      19              0.0000000000
      2601        25  POPC      H15S           32.9873798933       58.0241904536       46.3549885043  MEMB      19              0.0000000000
      2602        25  POPC      C216           30.9215216020       57.7019135527       46.9786751384  MEMB      19              0.0000000000
      2603        25  POPC      H16R           30.6960185173       58.7767066332       46.8455886525  MEMB      19              0.0000000000
      2604        25  POPC      H16S           30.3620099868       57.3595868224       47.8763876274  MEMB      19              0.0000000000
      2605        25  POPC      C217           30.3679307782       56.9256431468       45.7830786079  MEMB      19              0.0000000000
      2606        25  POPC      H17R           30.4904817356       55.8369286696       45.9774030717  MEMB      19              0.0000000000
      2607        25  POPC      H17S           30.9561982450       57.1697870009       44.8706559231  MEMB      19              0.0000000000
      2608        25  POPC      C218           28.8927925042       57.2477225893       45.5541232313  MEMB      19              0.0000000000
      2609        25  POPC      H18R           28.4943244003       56.7127002397       44.6665351039  MEMB      19              0.0000000000
      2610        25  POPC      H18S           28.7720917851       58.3425598697       45.3976394898  MEMB      19              0.0000000000
      2611        25  POPC      H18T           28.2937508574       56.9650173622       46.4462694846  MEMB      19              0.0000000000
      2612        25  POPC      C33            30.9124617532       53.0462404822       57.0781252370  MEMB      19              0.0000000000
      2613        25  POPC      H3X            30.3045365669       53.9746084301       57.1081237905  MEMB      19              0.0000000000
      2614        25  POPC      H3Y            30.3712331929       52.2926161326       57.6954458293  MEMB      19              0.0000000000
      2615        25  POPC      C34            30.9976299168       52.5119693052       55.6391563715  MEMB      19              0.0000000000
      2616        25  POPC      H4X            31.8313571342       51.7779237501       55.5966654775  MEMB      19              0.0000000000
      2617        25  POPC      H4Y            31.2443175389       53.3404850193       54.9386728493  MEMB      19              0.0000000000
      2618        25  POPC      C35            29.7399687961       51.7719402154       55.1751762639  MEMB      19              0.0000000000
      2619        25  POPC      H5X            28.9363968427       52.5083192815       54.9577322544  MEMB      19              0.0000000000
      2620        25  POPC      H5Y            29.3790018167       51.1154099837       56.0003412403  MEMB      19              0.0000000000
      2621        25  POPC      C36            30.0283579229       50.8913597938       53.9479360489  MEMB      19              0.0000000000
      2622        25  POPC      H6X            30.7734264966       50.1171757894       54.2469896698  MEMB      19              0.0000000000
      2623        25  POPC      H6Y            30.4969246131       51.5071608941       53.1508885898  MEMB      19              0.0000000000
      2624        25  POPC      C37            28.7738377191       50.1905599438       53.4060967860  MEMB      19              0.0000000000
      2625        25  POPC      H7X            28.1791912664       49.8240757786       54.2738939300  MEMB      19              0.0000000000
      2626        25  POPC      H7Y            29.0780607475       49.2998000976       52.8134404870  MEMB      19              0.0000000000
      2627        25  POPC      C38            27.8987486928       51.1054891197       52.5311145874  MEMB      19              0.0000000000
      2628        25  POPC      H8X            27.7882344658       52.0846791884       53.0490415327  MEMB      19              0.0000000000
      2629        25  POPC      H8Y            26.8817713935       50.6687584072       52.4299091455  MEMB      19              0.0000000000
      2630        25  POPC      C39            28.4669914448       51.3526744440       51.1233465669  MEMB      19              0.0000000000
      2631        25  POPC      H9X            29.5546675069       51.5671160808       51.1969728421  MEMB      19              0.0000000000
      2632        25  POPC      H9Y            27.9727533783       52.2530711146       50.6949768335  MEMB      19              0.0000000000
      2633        25  POPC      C310           28.2595121431       50.1850665073       50.1464380180  MEMB      19              0.0000000000
      2634        25  POPC      H10X           27.1787831961       50.0983382450       49.9011238045  MEMB      19              0.0000000000
      2635        25  POPC      H10Y           28.5658528625       49.2377128565       50.6402107292  MEMB      19              0.0000000000
      2636        25  POPC      C311           29.0762145527       50.3345784552       48.8520337307  MEMB      19              0.0000000000
      2637        25  POPC      H11X           28.8873157413       49.4540852961       48.1965249575  MEMB      19              0.0000000000
      2638        25  POPC      H11Y           30.1570599311       50.3281571094       49.1138214680  MEMB      19              0.0000000000
      2639        25  POPC      C312           28.7781604945       51.6176559262       48.0649020979  MEMB      19              0.0000000000
      2640        25  POPC      H12X           28.9222861141       52.5117012496       48.7104371878  MEMB      19              0.0000000000
      2641        25  POPC      H12Y           27.7105146267       51.5899430576       47.7561792241  MEMB      19              0.0000000000
      2642        25  POPC      C313           29.6864712979       51.7723373854       46.8342489559  MEMB      19              0.0000000000
      2643        25  POPC      H13X           29.6130643575       50.8561438534       46.2077136627  MEMB      19              0.0000000000
      2644        25  POPC      H13Y           30.7424553592       51.8458981147       47.1796934639  MEMB      19              0.0000000000
      2645        25  POPC      C314           29.3602653085       53.0082669808       45.9772302059  MEMB      19              0.0000000000
      2646        25  POPC      H14X           30.0497286756       53.0286223979       45.1030953706  MEMB      19              0.0000000000
      2647        25  POPC      H14Y           29.5587105664       53.9205504278       46.5832799420  MEMB      19              0.0000000000
      2648        25  POPC      C315           27.9110086138       53.0672924586       45.4601171778  MEMB      19              0.0000000000
      2649        25  POPC      H15X           27.8020644445       53.9695401590       44.8151134977  MEMB      19              0.0000000000
      2650        25  POPC      H15Y           27.2304224824       53.2087639434       46.3298784005  MEMB      19              0.0000000000
      2651        25  POPC      C316           27.4649394695       51.8291197338       44.6718898014  MEMB      19              0.0000000000
      2652        25  POPC      H16X           26.3957342078       51.9167738118       44.3853396116  MEMB      19              0.0000000000
      2653        25  POPC      H16Y           27.5774834619       50.9077603571       45.2808569911  MEMB      19              0.0000000000
      2654        25  POPC      H16Z           28.0730511381       51.7187327980       43.7483173536  MEMB      19              0.0000000000
      2655        26  POPS      N              48.3396803432       43.7809785940       63.5470048800  MEMB      20              0.0000000000
      2656        26  POPS      HN1            47.5221909511       43.6040008648       62.9032505735  MEMB      20              0.0000000000
      2657        26  POPS      HN2            48.4490048845       42.9164599244       64.1191031149  MEMB      20              0.0000000000
      2658        26  POPS      HN3            48.1799984053       44.6153019423       64.1378628561  MEMB      20              0.0000000000
      2659        26  POPS      C12            49.5455850918       43.9735573008       62.6715041564  MEMB      20              0.0000000000
      2660        26  POPS      H12A           49.7759082156       43.0129273305       62.2466000819  MEMB      20              0.0000000000
      2661        26  POPS      C13            50.8399068293       44.2902354571       63.4337138580  MEMB      20              0.0000000000
      2662        26  POPS      O13A           50.7785022213       44.3769450137       64.6842153533  MEMB      20              0.0000000000
      2663        26  POPS      O13B           51.9227648223       44.3363949721       62.7995669237  MEMB      20              0.0000000000
      2664        26  POPS      C11            49.2066329051       45.0309021068       61.5449166784  MEMB      20              0.0000000000
      2665        26  POPS      H11A           50.1241159534       45.2627924667       60.9755224059  MEMB      20              0.0000000000
      2666        26  POPS      H11B           48.9042501090       45.9818909093       62.0376438174  MEMB      20              0.0000000000
      2667        26  POPS      P              47.7806005653       43.1531878866       60.3668483163  MEMB      20              0.0000000000
      2668        26  POPS      O13            46.8691638364       42.8933896408       61.5176574713  MEMB      20              0.0000000000
      2669        26  POPS      O14            49.0001926113       42.3351650444       60.2751052627  MEMB      20              0.0000000000
      2670        26  POPS      O12            48.1940615637       44.6558639567       60.5966107223  MEMB      20              0.0000000000
      2671        26  POPS      O11            47.0224778698       43.0996027516       58.9905183510  MEMB      20              0.0000000000
      2672        26  POPS      C1             46.0796808449       44.0028134017       58.4240920343  MEMB      20              0.0000000000
      2673        26  POPS      HA             46.1266159788       45.0049980575       58.9023682207  MEMB      20              0.0000000000
      2674        26  POPS      HB             45.0601014829       43.5823308347       58.5901089321  MEMB      20              0.0000000000
      2675        26  POPS      C2             46.2321258723       44.1943550705       56.8659037512  MEMB      20              0.0000000000
      2676        26  POPS      HS             45.3228383067       44.7397637402       56.5178463059  MEMB      20              0.0000000000
      2677        26  POPS      O21            46.3168830637       42.9113467622       56.2213549105  MEMB      20              0.0000000000
      2678        26  POPS      C21            46.1909701239       42.8778483560       54.9057829272  MEMB      20              0.0000000000
      2679        26  POPS      O22            45.7346422187       43.7592755035       54.1994993790  MEMB      20              0.0000000000
      2680        26  POPS      C22            46.7822380399       41.5438577529       54.4576428868  MEMB      20              0.0000000000
      2681        26  POPS      H2R            46.1449876722       40.7379263498       54.8636052987  MEMB      20              0.0000000000
      2682        26  POPS      H2S            47.7853947503       41.4546970847       54.9192495636  MEMB      20              0.0000000000
      2683        26  POPS      C3             47.4756231637       45.0734016318       56.4849625655  MEMB      20              0.0000000000
      2684        26  POPS      HX             47.4191666585       45.9803021784       57.1272206825  MEMB      20              0.0000000000
      2685        26  POPS      HY             47.3769645331       45.4299309950       55.4345468920  MEMB      20              0.0000000000
      2686        26  POPS      O31            48.7431549338       44.4312137380       56.7388346405  MEMB      20              0.0000000000
      2687        26  POPS      C31            49.3733514897       43.8775744537       55.7049447189  MEMB      20              0.0000000000
      2688        26  POPS      O32            49.0155542095       43.9408352800       54.5403130794  MEMB      20              0.0000000000
      2689        26  POPS      C32            50.6603262732       43.2223067277       56.2084270632  MEMB      20              0.0000000000
      2690        26  POPS      H2X            50.7384337558       43.3850359447       57.3041621368  MEMB      20              0.0000000000
      2691        26  POPS      H2Y            51.4856954661       43.7581128061       55.7089255599  MEMB      20              0.0000000000
      2692        26  POPS      C23            46.8978438223       41.4347321902       52.9334146519  MEMB      20              0.0000000000
      2693        26  POPS      H3R            47.5160726782       42.2683133509       52.5271159608  MEMB      20              0.0000000000
      2694        26  POPS      H3S            45.8879838458       41.5290612547       52.4809289916  MEMB      20              0.0000000000
      2695        26  POPS      C24            47.4878180256       40.0961365152       52.4926760727  MEMB      20              0.0000000000
      2696        26  POPS      H4R            47.1483136931       39.2759399904       53.1623503461  MEMB      20              0.0000000000
      2697        26  POPS      H4S            48.5937952739       40.1546909127       52.5765608346  MEMB      20              0.0000000000
      2698        26  POPS      C25            47.0449363909       39.7827013360       51.0606455371  MEMB      20              0.0000000000
      2699        26  POPS      H5R            47.2229594411       40.6853188479       50.4332458854  MEMB      20              0.0000000000
      2700        26  POPS      H5S            45.9466414400       39.6059245534       51.0620928476  MEMB      20              0.0000000000
      2701        26  POPS      C26            47.7493432413       38.5757406552       50.4333709032  MEMB      20              0.0000000000
      2702        26  POPS      H6R            47.4183326924       38.4810839622       49.3768422146  MEMB      20              0.0000000000
      2703        26  POPS      H6S            47.4204236385       37.6542975071       50.9603382786  MEMB      20              0.0000000000
      2704        26  POPS      C27            49.2818224124       38.6564942567       50.4415457958  MEMB      20              0.0000000000
      2705        26  POPS      H7R            49.6976894511       37.8152758675       49.8435416076  MEMB      20              0.0000000000
      2706        26  POPS      H7S            49.6470891308       38.5300893767       51.4858714934  MEMB      20              0.0000000000
      2707        26  POPS      C28            49.8373366639       39.9817207214       49.9034079452  MEMB      20              0.0000000000
      2708        26  POPS      H8R            50.9340148902       39.9634704544       50.0767502945  MEMB      20              0.0000000000
      2709        26  POPS      H8S            49.4340050925       40.8240898316       50.4984078319  MEMB      20              0.0000000000
      2710        26  POPS      C29            49.5050258710       40.2290949718       48.4631795591  MEMB      20              0.0000000000
      2711        26  POPS      H91            48.4610655791       40.5126869439       48.2605005968  MEMB      20              0.0000000000
      2712        26  POPS      C210           50.3785987254       40.1705088278       47.4544780749  MEMB      20              0.0000000000
      2713        26  POPS      H101           50.0352648247       40.4329430317       46.4458519090  MEMB      20              0.0000000000
      2714        26  POPS      C211           51.8425960166       39.8517940944       47.5626589861  MEMB      20              0.0000000000
      2715        26  POPS      H11R           52.0024668745       38.7553684356       47.4388451450  MEMB      20              0.0000000000
      2716        26  POPS      H11S           52.2851335127       40.1512752226       48.5382532469  MEMB      20              0.0000000000
      2717        26  POPS      C212           52.5990422917       40.5711658142       46.4435192644  MEMB      20              0.0000000000
      2718        26  POPS      H12R           52.2100463915       40.1887288562       45.4872597756  MEMB      20              0.0000000000
      2719        26  POPS      H12S           53.6711690396       40.2728863828       46.5058259770  MEMB      20              0.0000000000
      2720        26  POPS      C213           52.5188518103       42.1068107069       46.4597110336  MEMB      20              0.0000000000
      2721        26  POPS      H13R           53.5152208885       42.4722461190       46.1233318773  MEMB      20              0.0000000000
      2722        26  POPS      H13S           52.3519609015       42.4736232791       47.4969213445  MEMB      20              0.0000000000
      2723        26  POPS      C214           51.4931288959       42.7419971439       45.4997010628  MEMB      20              0.0000000000
      2724        26  POPS      H14R           50.4646630506       42.5798063107       45.8855448677  MEMB      20              0.0000000000
      2725        26  POPS      H14S           51.5781349840       42.2525212468       44.5096605892  MEMB      20              0.0000000000
      2726        26  POPS      C215           51.7611686898       44.2469610639       45.3249636048  MEMB      20              0.0000000000
      2727        26  POPS      H15R           52.7058872232       44.3827542965       44.7568636489  MEMB      20              0.0000000000
      2728        26  POPS      H15S           51.8873487840       44.6635333536       46.3517488524  MEMB      20              0.0000000000
      2729        26  POPS      C216           50.6676206112       45.0712976120       44.6354071585  MEMB      20              0.0000000000
      2730        26  POPS      H16R           50.6150582730       46.0769819233       45.1119711604  MEMB      20              0.0000000000
      2731        26  POPS      H16S           49.7091714247       44.5630513592       44.8317414362  MEMB      20              0.0000000000
      2732        26  POPS      C217           50.8766184586       45.2572136936       43.1246240267  MEMB      20              0.0000000000
      2733        26  POPS      H17R           49.8978138464       45.1180562139       42.6096890424  MEMB      20              0.0000000000
      2734        26  POPS      H17S           51.5579983519       44.4555882089       42.7607985163  MEMB      20              0.0000000000
      2735        26  POPS      C218           51.4389459375       46.6252262990       42.7206733320  MEMB      20              0.0000000000
      2736        26  POPS      H18R           50.6574542333       47.4109532511       42.7576259217  MEMB      20              0.0000000000
      2737        26  POPS      H18S           51.8243976506       46.5919762274       41.6797264327  MEMB      20              0.0000000000
      2738        26  POPS      H18T           52.2624772340       46.9321648778       43.3980674003  MEMB      20              0.0000000000
      2739        26  POPS      C33            50.8061221703       41.7143894479       55.9111254967  MEMB      20              0.0000000000
      2740        26  POPS      H3X            49.9839369062       41.1696664133       56.4225004436  MEMB      20              0.0000000000
      2741        26  POPS      H3Y            51.7704769249       41.3690290814       56.3528808843  MEMB      20              0.0000000000
      2742        26  POPS      C34            50.7992705322       41.3546004604       54.4191474809  MEMB      20              0.0000000000
      2743        26  POPS      H4X            49.7472741957       41.4393957710       54.0678858845  MEMB      20              0.0000000000
      2744        26  POPS      H4Y            51.1076559523       40.2934059751       54.2894922053  MEMB      20              0.0000000000
      2745        26  POPS      C35            51.6444760150       42.2540762230       53.5027620229  MEMB      20              0.0000000000
      2746        26  POPS      H5X            52.7288429089       42.0633842971       53.6469902106  MEMB      20              0.0000000000
      2747        26  POPS      H5Y            51.4560430407       43.3233286359       53.7297569915  MEMB      20              0.0000000000
      2748        26  POPS      C36            51.2502859371       42.0444772030       52.0396176413  MEMB      20              0.0000000000
      2749        26  POPS      H6X            50.1385435838       42.0279243418       51.9863677245  MEMB      20              0.0000000000
      2750        26  POPS      H6Y            51.6365369452       41.0506800708       51.7244917919  MEMB      20              0.0000000000
      2751        26  POPS      C37            51.7537608685       43.1293765622       51.0782715026  MEMB      20              0.0000000000
      2752        26  POPS      H7X            51.6217180763       42.7650955177       50.0341688160  MEMB      20              0.0000000000
      2753        26  POPS      H7Y            52.8449759795       43.2719706486       51.2419457427  MEMB      20              0.0000000000
      2754        26  POPS      C38            51.0309360178       44.4848663516       51.2261210846  MEMB      20              0.0000000000
      2755        26  POPS      H8X            51.5614766685       45.2195046348       50.5836277703  MEMB      20              0.0000000000
      2756        26  POPS      H8Y            51.1055622756       44.8461208654       52.2744436838  MEMB      20              0.0000000000
      2757        26  POPS      C39            49.5512636874       44.5036655845       50.7964345357  MEMB      20              0.0000000000
      2758        26  POPS      H9X            49.1785041604       45.5477566369       50.9069049010  MEMB      20              0.0000000000
      2759        26  POPS      H9Y            48.9433445239       43.8661150696       51.4766499574  MEMB      20              0.0000000000
      2760        26  POPS      C310           49.3623404160       44.0451090826       49.3442229491  MEMB      20              0.0000000000
      2761        26  POPS      H10X           49.4177156297       42.9347453809       49.3131405968  MEMB      20              0.0000000000
      2762        26  POPS      H10Y           50.2081177890       44.4396702596       48.7340717003  MEMB      20              0.0000000000
      2763        26  POPS      C311           48.0556523564       44.5034302904       48.6888709130  MEMB      20              0.0000000000
      2764        26  POPS      H11X           48.0498057455       45.6174144984       48.6417203404  MEMB      20              0.0000000000
      2765        26  POPS      H11Y           47.1769024986       44.1829231286       49.2918597190  MEMB      20              0.0000000000
      2766        26  POPS      C312           47.9522498401       43.9356709195       47.2698004667  MEMB      20              0.0000000000
      2767        26  POPS      H12X           47.7010560516       42.8541947370       47.3236746989  MEMB      20              0.0000000000
      2768        26  POPS      H12Y           48.9510484037       44.0188808095       46.7858598597  MEMB      20              0.0000000000
      2769        26  POPS      C313           46.9434691564       44.6827665817       46.3991510979  MEMB      20              0.0000000000
      2770        26  POPS      H13X           47.2406208275       45.7495824948       46.3506254817  MEMB      20              0.0000000000
      2771        26  POPS      H13Y           45.9348896027       44.6458259133       46.8663422329  MEMB      20              0.0000000000
      2772        26  POPS      C314           46.8710722951       44.1421829750       44.9707654292  MEMB      20              0.0000000000
      2773        26  POPS      H14X           47.8198751133       44.2795774169       44.4198855458  MEMB      20              0.0000000000
      2774        26  POPS      H14Y           46.1294952599       44.7387063462       44.4042894012  MEMB      20              0.0000000000
      2775        26  POPS      C315           46.4699796957       42.6776371191       44.8851480622  MEMB      20              0.0000000000
      2776        26  POPS      H15X           45.9603773157       42.3570854620       45.8225726235  MEMB      20              0.0000000000
      2777        26  POPS      H15Y           47.3864405410       42.0555308333       44.7756831952  MEMB      20              0.0000000000
      2778        26  POPS      C316           45.5350677091       42.4791842489       43.7034719215  MEMB      20              0.0000000000
      2779        26  POPS      H16X           44.4957807389       42.7554134794       43.9890364860  MEMB      20              0.0000000000
      2780        26  POPS      H16Y           45.5654547927       41.4382286996       43.3476154016  MEMB      20              0.0000000000
      2781        26  POPS      H16Z           45.8408760692       43.1137076647       42.8450972748  MEMB      20              0.0000000000
      2782        27  POPC      N              26.0826804229       12.5643774499       63.1774072171  MEMB      21              0.0000000000
      2783        27  POPC      C12            26.7027693849       12.7647043403       61.7876643459  MEMB      21              0.0000000000
      2784        27  POPC      H12A           26.9493769618       13.8052582328       61.6534478685  MEMB      21              0.0000000000
      2785        27  POPC      H12B           25.9548246168       12.5024266442       61.0352708750  MEMB      21              0.0000000000
      2786        27  POPC      C13            25.2293085339       11.3234769428       63.1758412869  MEMB      21              0.0000000000
      2787        27  POPC      H13A           25.8470090903       10.4449045262       62.9804580553  MEMB      21              0.0000000000
      2788        27  POPC      H13B           24.6892834166       11.1736591513       64.0941529042  MEMB      21              0.0000000000
      2789        27  POPC      H13C           24.5458893029       11.3166002437       62.3268991482  MEMB      21              0.0000000000
      2790        27  POPC      C14            27.1659999367       12.3616059467       64.1687869607  MEMB      21              0.0000000000
      2791        27  POPC      H14A           27.8523189768       11.6063296114       63.7870399083  MEMB      21              0.0000000000
      2792        27  POPC      H14B           27.7453603037       13.2648555622       64.3525708228  MEMB      21              0.0000000000
      2793        27  POPC      H14C           26.7906273063       12.0270887997       65.1270346313  MEMB      21              0.0000000000
      2794        27  POPC      C15            25.2337352453       13.7212494556       63.6130228035  MEMB      21              0.0000000000
      2795        27  POPC      H15A           25.8527201834       14.5703510408       63.8942594270  MEMB      21              0.0000000000
      2796        27  POPC      H15B           24.6759121070       13.4664191635       64.5118597035  MEMB      21              0.0000000000
      2797        27  POPC      H15C           24.5414527050       14.0228465392       62.8412825718  MEMB      21              0.0000000000
      2798        27  POPC      C11            27.9779788734       11.9478122121       61.3896041211  MEMB      21              0.0000000000
      2799        27  POPC      H11A           28.8473559046       12.2971853075       61.9887198180  MEMB      21              0.0000000000
      2800        27  POPC      H11B           28.2361492624       12.1649704136       60.3257577549  MEMB      21              0.0000000000
      2801        27  POPC      P              26.8348120071        9.6762651098       60.7298595645  MEMB      21              0.0000000000
      2802        27  POPC      O13            25.6650668369       10.5163248532       60.4056083554  MEMB      21              0.0000000000
      2803        27  POPC      O14            26.5946520894        8.4656993911       61.5415742760  MEMB      21              0.0000000000
      2804        27  POPC      O12            27.8372127836       10.5483326040       61.5929431119  MEMB      21              0.0000000000
      2805        27  POPC      O11            27.6426465897        9.3118369840       59.4201103803  MEMB      21              0.0000000000
      2806        27  POPC      C1             28.5523085550        8.2001281940       59.4858122951  MEMB      21              0.0000000000
      2807        27  POPC      HA             28.2585177666        7.4320421098       60.2445982560  MEMB      21              0.0000000000
      2808        27  POPC      HB             29.5418785840        8.5901689661       59.7735915941  MEMB      21              0.0000000000
      2809        27  POPC      C2             28.6719402699        7.3792333577       58.1664473649  MEMB      21              0.0000000000
      2810        27  POPC      HS             29.6780816465        6.9101836278       58.1136004971  MEMB      21              0.0000000000
      2811        27  POPC      O21            28.4869983277        8.2772251805       57.0516348271  MEMB      21              0.0000000000
      2812        27  POPC      C21            28.4972419374        7.7128838811       55.8437620631  MEMB      21              0.0000000000
      2813        27  POPC      O22            28.8551107541        6.5722366837       55.6230901292  MEMB      21              0.0000000000
      2814        27  POPC      C22            27.9472654975        8.6995443970       54.8184160623  MEMB      21              0.0000000000
      2815        27  POPC      H2R            28.1476438015        9.7292820860       55.1619918147  MEMB      21              0.0000000000
      2816        27  POPC      H2S            26.8508994297        8.5612428692       54.7843011016  MEMB      21              0.0000000000
      2817        27  POPC      C3             27.6029023366        6.2213546883       58.2382870956  MEMB      21              0.0000000000
      2818        27  POPC      HX             28.0050040419        5.4969208449       58.9801275579  MEMB      21              0.0000000000
      2819        27  POPC      HY             27.5009281142        5.6489449473       57.2910245814  MEMB      21              0.0000000000
      2820        27  POPC      O31            26.3262379071        6.6686572200       58.7447013771  MEMB      21              0.0000000000
      2821        27  POPC      C31            25.6388486955        7.3568685147       57.8417502664  MEMB      21              0.0000000000
      2822        27  POPC      O32            25.9203891904        7.4226451811       56.6620126259  MEMB      21              0.0000000000
      2823        27  POPC      C32            24.3634819012        7.9325845017       58.4584385675  MEMB      21              0.0000000000
      2824        27  POPC      H2X            24.5142969286        7.9620119101       59.5593694853  MEMB      21              0.0000000000
      2825        27  POPC      H2Y            23.5204533880        7.2538461971       58.2337099340  MEMB      21              0.0000000000
      2826        27  POPC      C23            28.5281675694        8.4632506188       53.4222053968  MEMB      21              0.0000000000
      2827        27  POPC      H3R            29.6371975838        8.3945680374       53.4700156902  MEMB      21              0.0000000000
      2828        27  POPC      H3S            28.2774059342        9.3309772458       52.7745606971  MEMB      21              0.0000000000
      2829        27  POPC      C24            27.9472929927        7.2223099233       52.7484120290  MEMB      21              0.0000000000
      2830        27  POPC      H4R            26.8372716402        7.2686263083       52.7255075978  MEMB      21              0.0000000000
      2831        27  POPC      H4S            28.2216969089        6.3101969563       53.3250517041  MEMB      21              0.0000000000
      2832        27  POPC      C25            28.4925247491        7.0973801668       51.3282434968  MEMB      21              0.0000000000
      2833        27  POPC      H5R            29.6017483130        7.2044760282       51.3879319569  MEMB      21              0.0000000000
      2834        27  POPC      H5S            28.1125012992        7.9328002676       50.7079125300  MEMB      21              0.0000000000
      2835        27  POPC      C26            28.1673861938        5.7477726684       50.6925237817  MEMB      21              0.0000000000
      2836        27  POPC      H6R            28.0558384274        4.9935547066       51.5005775431  MEMB      21              0.0000000000
      2837        27  POPC      H6S            29.0451019094        5.4206534868       50.0982253564  MEMB      21              0.0000000000
      2838        27  POPC      C27            26.9086494308        5.7508091066       49.8082847446  MEMB      21              0.0000000000
      2839        27  POPC      H7R            26.0672598595        6.1933362823       50.3853901471  MEMB      21              0.0000000000
      2840        27  POPC      H7S            26.6566374037        4.6905462049       49.5795800009  MEMB      21              0.0000000000
      2841        27  POPC      C28            27.0496739592        6.4944199853       48.4720240537  MEMB      21              0.0000000000
      2842        27  POPC      H8R            27.1810611925        7.5790889612       48.6697812517  MEMB      21              0.0000000000
      2843        27  POPC      H8S            26.1037574509        6.3949709645       47.8947950099  MEMB      21              0.0000000000
      2844        27  POPC      C29            28.1935497298        5.8962614511       47.6968661143  MEMB      21              0.0000000000
      2845        27  POPC      H91            27.9695755767        4.9171210384       47.2517345886  MEMB      21              0.0000000000
      2846        27  POPC      C210           29.4137042954        6.4429414937       47.5304137630  MEMB      21              0.0000000000
      2847        27  POPC      H101           30.1696710165        5.8884156454       46.9532205529  MEMB      21              0.0000000000
      2848        27  POPC      C211           29.8603953630        7.7732690152       48.0917639777  MEMB      21              0.0000000000
      2849        27  POPC      H11R           30.8719351628        7.6850796232       48.5437480696  MEMB      21              0.0000000000
      2850        27  POPC      H11S           29.1940720862        8.1081441201       48.9125270357  MEMB      21              0.0000000000
      2851        27  POPC      C212           29.8383502055        8.9035902693       47.0426278473  MEMB      21              0.0000000000
      2852        27  POPC      H12R           30.7573400668        8.8537755210       46.4308227037  MEMB      21              0.0000000000
      2853        27  POPC      H12S           29.8659735341        9.8802073614       47.5741627399  MEMB      21              0.0000000000
      2854        27  POPC      C213           28.5970863935        8.8471632580       46.1319971559  MEMB      21              0.0000000000
      2855        27  POPC      H13R           27.7029559395        8.8234919860       46.7814067148  MEMB      21              0.0000000000
      2856        27  POPC      H13S           28.5641244660        7.8884810687       45.5783459602  MEMB      21              0.0000000000
      2857        27  POPC      C214           28.4424227598       10.0083235817       45.1434453391  MEMB      21              0.0000000000
      2858        27  POPC      H14R           28.8555861961       10.9414605640       45.5802356143  MEMB      21              0.0000000000
      2859        27  POPC      H14S           27.3512323838       10.1785002678       44.9925072559  MEMB      21              0.0000000000
      2860        27  POPC      C215           29.0441773983        9.7235343823       43.7573938574  MEMB      21              0.0000000000
      2861        27  POPC      H15R           30.1467264219        9.6507304275       43.8355223983  MEMB      21              0.0000000000
      2862        27  POPC      H15S           28.8164136482       10.5960236159       43.1044248822  MEMB      21              0.0000000000
      2863        27  POPC      C216           28.4867878372        8.4467811100       43.1039805801  MEMB      21              0.0000000000
      2864        27  POPC      H16R           27.4067562141        8.3782236883       43.3478967566  MEMB      21              0.0000000000
      2865        27  POPC      H16S           28.9515726205        7.5309546516       43.5187891138  MEMB      21              0.0000000000
      2866        27  POPC      C217           28.6490535363        8.4020757296       41.5879505353  MEMB      21              0.0000000000
      2867        27  POPC      H17R           28.6632614262        9.4428543345       41.1952251928  MEMB      21              0.0000000000
      2868        27  POPC      H17S           27.7556135348        7.8811942230       41.1684812366  MEMB      21              0.0000000000
      2869        27  POPC      C218           29.8974701697        7.6496369776       41.1346923743  MEMB      21              0.0000000000
      2870        27  POPC      H18R           29.8599485457        6.6021445115       41.5012758188  MEMB      21              0.0000000000
      2871        27  POPC      H18S           30.8109665157        8.1346434064       41.5384947442  MEMB      21              0.0000000000
      2872        27  POPC      H18T           29.9687865009        7.6132256789       40.0285940721  MEMB      21              0.0000000000
      2873        27  POPC      C33            24.0648746455        9.3764293199       57.9785417620  MEMB      21              0.0000000000
      2874        27  POPC      H3X            24.9845135307        9.9994964358       58.0202170230  MEMB      21              0.0000000000
      2875        27  POPC      H3Y            23.3584112955        9.8069813376       58.7298866399  MEMB      21              0.0000000000
      2876        27  POPC      C34            23.3998968654        9.5280311947       56.5979945764  MEMB      21              0.0000000000
      2877        27  POPC      H4X            22.9641617365       10.5551040615       56.5659421849  MEMB      21              0.0000000000
      2878        27  POPC      H4Y            22.5809384399        8.7841020399       56.5141403719  MEMB      21              0.0000000000
      2879        27  POPC      C35            24.3285488696        9.4021343656       55.3850290322  MEMB      21              0.0000000000
      2880        27  POPC      H5X            24.4976091173        8.3218319331       55.1825623912  MEMB      21              0.0000000000
      2881        27  POPC      H5Y            25.3048193405        9.8750267794       55.6272414219  MEMB      21              0.0000000000
      2882        27  POPC      C36            23.7950666801        9.9835975802       54.0736069176  MEMB      21              0.0000000000
      2883        27  POPC      H6X            23.5509893473       11.0602534087       54.1864059723  MEMB      21              0.0000000000
      2884        27  POPC      H6Y            22.8452883319        9.4544761692       53.8445101698  MEMB      21              0.0000000000
      2885        27  POPC      C37            24.7704925576        9.7564855019       52.9026794960  MEMB      21              0.0000000000
      2886        27  POPC      H7X            24.1936499793        9.4700119938       52.0005133396  MEMB      21              0.0000000000
      2887        27  POPC      H7Y            25.4293865293        8.8896581254       53.1192834384  MEMB      21              0.0000000000
      2888        27  POPC      C38            25.6180450401       10.9836981589       52.5445486254  MEMB      21              0.0000000000
      2889        27  POPC      H8X            26.6373695008       10.8443899602       52.9623901859  MEMB      21              0.0000000000
      2890        27  POPC      H8Y            25.1808655021       11.8850819189       53.0301182300  MEMB      21              0.0000000000
      2891        27  POPC      C39            25.6860057101       11.2727322304       51.0333316038  MEMB      21              0.0000000000
      2892        27  POPC      H9X            26.2310621809       12.2340789069       50.8930316793  MEMB      21              0.0000000000
      2893        27  POPC      H9Y            24.6564243779       11.4071167722       50.6359311335  MEMB      21              0.0000000000
      2894        27  POPC      C310           26.4096994216       10.1978740760       50.2134241514  MEMB      21              0.0000000000
      2895        27  POPC      H10X           25.8554749956        9.2362856010       50.2323391440  MEMB      21              0.0000000000
      2896        27  POPC      H10Y           27.3986698344       10.0199165865       50.6968201615  MEMB      21              0.0000000000
      2897        27  POPC      C311           26.6889104203       10.6352570852       48.7648671819  MEMB      21              0.0000000000
      2898        27  POPC      H11X           27.4808132722        9.9651505663       48.3784310532  MEMB      21              0.0000000000
      2899        27  POPC      H11Y           27.1295528909       11.6566813673       48.7817595755  MEMB      21              0.0000000000
      2900        27  POPC      C312           25.4877221766       10.6323890929       47.7925548292  MEMB      21              0.0000000000
      2901        27  POPC      H12X           25.8472497142       11.0420803002       46.8209497583  MEMB      21              0.0000000000
      2902        27  POPC      H12Y           24.7038172446       11.3200991499       48.1763821782  MEMB      21              0.0000000000
      2903        27  POPC      C313           24.8598806604        9.2510161786       47.5190872981  MEMB      21              0.0000000000
      2904        27  POPC      H13X           24.5199836979        8.8168956884       48.4849698786  MEMB      21              0.0000000000
      2905        27  POPC      H13Y           25.6300436260        8.5671953599       47.1078866947  MEMB      21              0.0000000000
      2906        27  POPC      C314           23.6596911569        9.2850401263       46.5487076491  MEMB      21              0.0000000000
      2907        27  POPC      H14X           22.9049910037        9.9872170110       46.9612407129  MEMB      21              0.0000000000
      2908        27  POPC      H14Y           23.1954659504        8.2733223140       46.5152667873  MEMB      21              0.0000000000
      2909        27  POPC      C315           23.9792824548        9.7129009353       45.1047334624  MEMB      21              0.0000000000
      2910        27  POPC      H15X           24.4374129373       10.7267237083       45.1150202068  MEMB      21              0.0000000000
      2911        27  POPC      H15Y           23.0198479538        9.7986055014       44.5427266961  MEMB      21              0.0000000000
      2912        27  POPC      C316           24.8929316414        8.7495085152       44.3443952938  MEMB      21              0.0000000000
      2913        27  POPC      H16X           25.8340831280        8.5712402109       44.9063313218  MEMB      21              0.0000000000
      2914        27  POPC      H16Y           25.1575226449        9.1648934293       43.3472215099  MEMB      21              0.0000000000
      2915        27  POPC      H16Z           24.3909114229        7.7723446897       44.1962530808  MEMB      21              0.0000000000
      2916        28  POPC      N              20.3547672560       48.9051513193       62.9897598474  MEMB      22              0.0000000000
      2917        28  POPC      C12            21.2141258974       49.2461917382       61.7661855671  MEMB      22              0.0000000000
      2918        28  POPC      H12A           21.8551946800       48.4046919185       61.5347552032  MEMB      22              0.0000000000
      2919        28  POPC      H12B           21.9000884226       50.0596701087       62.0116278005  MEMB      22              0.0000000000
      2920        28  POPC      C13            19.3560197501       47.8608047332       62.6322599677  MEMB      22              0.0000000000
      2921        28  POPC      H13A           18.8463208231       48.1726030367       61.7286413049  MEMB      22              0.0000000000
      2922        28  POPC      H13B           19.8645710072       46.9292931805       62.4285122214  MEMB      22              0.0000000000
      2923        28  POPC      H13C           18.6631655106       47.7078872752       63.4482861327  MEMB      22              0.0000000000
      2924        28  POPC      C14            21.2328499583       48.4157685452       64.1049211835  MEMB      22              0.0000000000
      2925        28  POPC      H14A           21.9810481363       49.1662504735       64.3520444940  MEMB      22              0.0000000000
      2926        28  POPC      H14B           20.6745029025       48.2293264676       65.0218939026  MEMB      22              0.0000000000
      2927        28  POPC      H14C           21.7847607746       47.5228323460       63.8253915547  MEMB      22              0.0000000000
      2928        28  POPC      C15            19.6415441349       50.1563636596       63.4103165830  MEMB      22              0.0000000000
      2929        28  POPC      H15A           20.3892130634       50.8946640259       63.6912452502  MEMB      22              0.0000000000
      2930        28  POPC      H15B           18.9619559672       50.0185659957       64.2363113351  MEMB      22              0.0000000000
      2931        28  POPC      H15C           19.1284184338       50.5787665968       62.5454786489  MEMB      22              0.0000000000
      2932        28  POPC      C11            20.4759184071       49.7312446212       60.4848469033  MEMB      22              0.0000000000
      2933        28  POPC      H11A           19.7361397207       48.9732987254       60.1556350693  MEMB      22              0.0000000000
      2934        28  POPC      H11B           21.2098914074       49.8189730145       59.6463264164  MEMB      22              0.0000000000
      2935        28  POPC      P              20.6199767626       52.3236734963       60.6934900812  MEMB      22              0.0000000000
      2936        28  POPC      O13            21.9507675395       52.0610151425       61.2790094043  MEMB      22              0.0000000000
      2937        28  POPC      O14            19.7955320010       53.3949699220       61.2926200643  MEMB      22              0.0000000000
      2938        28  POPC      O12            19.7964565662       50.9666008073       60.7170562893  MEMB      22              0.0000000000
      2939        28  POPC      O11            20.6631165842       52.5467009686       59.1362542829  MEMB      22              0.0000000000
      2940        28  POPC      C1             19.3690696854       52.8773495064       58.6089949497  MEMB      22              0.0000000000
      2941        28  POPC      HA             19.0156866072       53.8316878621       59.0422517391  MEMB      22              0.0000000000
      2942        28  POPC      HB             18.6387138062       52.0637726821       58.8255917421  MEMB      22              0.0000000000
      2943        28  POPC      C2             19.4649783639       53.1935709970       57.1118833815  MEMB      22              0.0000000000
      2944        28  POPC      HS             19.2157476802       54.2690779131       56.9558709580  MEMB      22              0.0000000000
      2945        28  POPC      O21            18.5868305041       52.3860667194       56.3226606314  MEMB      22              0.0000000000
      2946        28  POPC      C21            17.3480242664       52.1922519510       56.7334576791  MEMB      22              0.0000000000
      2947        28  POPC      O22            16.7012190428       52.9141757204       57.4762237241  MEMB      22              0.0000000000
      2948        28  POPC      C22            16.9275597572       50.8096970291       56.2404394630  MEMB      22              0.0000000000
      2949        28  POPC      H2R            16.8549119115       50.8541421418       55.1353062825  MEMB      22              0.0000000000
      2950        28  POPC      H2S            15.9287273368       50.5733318429       56.6587953218  MEMB      22              0.0000000000
      2951        28  POPC      C3             20.9342107966       52.9608118833       56.6762889221  MEMB      22              0.0000000000
      2952        28  POPC      HX             21.1826952480       51.8792637295       56.8045178004  MEMB      22              0.0000000000
      2953        28  POPC      HY             21.6218385979       53.5015691948       57.3464293030  MEMB      22              0.0000000000
      2954        28  POPC      O31            21.1713376802       53.4790422274       55.3740664658  MEMB      22              0.0000000000
      2955        28  POPC      C31            21.0632608349       52.5801199398       54.4167593160  MEMB      22              0.0000000000
      2956        28  POPC      O32            20.8999238911       51.3868356725       54.5611609362  MEMB      22              0.0000000000
      2957        28  POPC      C32            21.1410400189       53.3040192208       53.0924425880  MEMB      22              0.0000000000
      2958        28  POPC      H2X            21.2706008829       52.5580497113       52.2870647761  MEMB      22              0.0000000000
      2959        28  POPC      H2Y            22.0469632385       53.9381467629       53.1171136423  MEMB      22              0.0000000000
      2960        28  POPC      C23            17.9621226269       49.7240991553       56.6494943942  MEMB      22              0.0000000000
      2961        28  POPC      H3R            18.0226689867       49.6892562368       57.7624433276  MEMB      22              0.0000000000
      2962        28  POPC      H3S            18.9757074823       49.9879863299       56.2669962273  MEMB      22              0.0000000000
      2963        28  POPC      C24            17.6069788041       48.3233840658       56.1262385879  MEMB      22              0.0000000000
      2964        28  POPC      H4R            16.5167016636       48.1617136099       56.2694815014  MEMB      22              0.0000000000
      2965        28  POPC      H4S            18.1455416544       47.5684132163       56.7431928365  MEMB      22              0.0000000000
      2966        28  POPC      C25            17.9848356189       48.0754160748       54.6524569337  MEMB      22              0.0000000000
      2967        28  POPC      H5R            17.6714321257       48.9362320523       54.0235102304  MEMB      22              0.0000000000
      2968        28  POPC      H5S            17.4311430533       47.1746045381       54.3000270364  MEMB      22              0.0000000000
      2969        28  POPC      C26            19.4884308705       47.7924970024       54.4773143331  MEMB      22              0.0000000000
      2970        28  POPC      H6R            19.7376447523       46.9414025630       55.1498505121  MEMB      22              0.0000000000
      2971        28  POPC      H6S            20.0725559570       48.6750335639       54.8176933839  MEMB      22              0.0000000000
      2972        28  POPC      C27            19.9247686006       47.3920996906       53.0512007010  MEMB      22              0.0000000000
      2973        28  POPC      H7R            19.1128937035       46.7879750376       52.5901433027  MEMB      22              0.0000000000
      2974        28  POPC      H7S            20.8188466425       46.7284871903       53.1238797062  MEMB      22              0.0000000000
      2975        28  POPC      C28            20.2542169102       48.5985408803       52.1467071130  MEMB      22              0.0000000000
      2976        28  POPC      H8R            19.4260769858       49.3246346834       52.2931142377  MEMB      22              0.0000000000
      2977        28  POPC      H8S            20.2363493019       48.3030058661       51.0825096388  MEMB      22              0.0000000000
      2978        28  POPC      C29            21.5549539172       49.2623351825       52.5168135058  MEMB      22              0.0000000000
      2979        28  POPC      H91            21.6284158988       49.4520416096       53.5939755291  MEMB      22              0.0000000000
      2980        28  POPC      C210           22.5889000507       49.6742404617       51.7625576948  MEMB      22              0.0000000000
      2981        28  POPC      H101           23.4320682696       50.1553038457       52.2819285095  MEMB      22              0.0000000000
      2982        28  POPC      C211           22.7671373616       49.5947071508       50.2720941781  MEMB      22              0.0000000000
      2983        28  POPC      H11R           21.9629126417       48.9980831059       49.7879532085  MEMB      22              0.0000000000
      2984        28  POPC      H11S           23.7346320573       49.1004369946       50.0311792425  MEMB      22              0.0000000000
      2985        28  POPC      C212           22.7721726092       51.0069888199       49.6619691930  MEMB      22              0.0000000000
      2986        28  POPC      H12R           23.5666043981       51.6351846751       50.1235050626  MEMB      22              0.0000000000
      2987        28  POPC      H12S           21.7919111523       51.4842627654       49.8905339127  MEMB      22              0.0000000000
      2988        28  POPC      C213           22.9927255721       50.9621809390       48.1430854969  MEMB      22              0.0000000000
      2989        28  POPC      H13R           22.3133046223       50.1877161966       47.7190936996  MEMB      22              0.0000000000
      2990        28  POPC      H13S           24.0375038264       50.6411216669       47.9325519910  MEMB      22              0.0000000000
      2991        28  POPC      C214           22.7119269580       52.2897010017       47.4245268861  MEMB      22              0.0000000000
      2992        28  POPC      H14R           22.8129695196       52.1168060392       46.3282322218  MEMB      22              0.0000000000
      2993        28  POPC      H14S           23.4655163956       53.0574647227       47.7090939468  MEMB      22              0.0000000000
      2994        28  POPC      C215           21.3082281000       52.8415541676       47.7080044945  MEMB      22              0.0000000000
      2995        28  POPC      H15R           21.3700279177       53.5770261440       48.5389355668  MEMB      22              0.0000000000
      2996        28  POPC      H15S           20.6449083855       52.0248130897       48.0590630672  MEMB      22              0.0000000000
      2997        28  POPC      C216           20.6700621825       53.5037076511       46.4845537134  MEMB      22              0.0000000000
      2998        28  POPC      H16R           20.4662701987       52.7555883937       45.6882195558  MEMB      22              0.0000000000
      2999        28  POPC      H16S           21.4129402605       54.2237927906       46.0737847541  MEMB      22              0.0000000000
      3000        28  POPC      C217           19.3877332496       54.2601846526       46.8426777323  MEMB      22              0.0000000000
      3001        28  POPC      H17R           19.4905788552       54.6101175794       47.8966915926  MEMB      22              0.0000000000
      3002        28  POPC      H17S           18.5097041736       53.5783776882       46.8139787268  MEMB      22              0.0000000000
      3003        28  POPC      C218           19.1394112663       55.4891711638       45.9689503053  MEMB      22              0.0000000000
      3004        28  POPC      H18R           18.7762090427       56.3251426695       46.5982076951  MEMB      22              0.0000000000
      3005        28  POPC      H18S           18.3974015853       55.2762388124       45.1755096002  MEMB      22              0.0000000000
      3006        28  POPC      H18T           20.0750980709       55.8419847486       45.4878294306  MEMB      22              0.0000000000
      3007        28  POPC      C33            19.8683733182       54.1568265308       52.9127672031  MEMB      22              0.0000000000
      3008        28  POPC      H3X            19.7532822459       54.8425236899       53.7861334186  MEMB      22              0.0000000000
      3009        28  POPC      H3Y            19.9728238769       54.7878509027       52.0015442690  MEMB      22              0.0000000000
      3010        28  POPC      C34            18.6012515374       53.3013742639       52.7749938693  MEMB      22              0.0000000000
      3011        28  POPC      H4X            17.6921489769       53.9275826932       52.8702967795  MEMB      22              0.0000000000
      3012        28  POPC      H4Y            18.5540898997       52.5609288883       53.6058764537  MEMB      22              0.0000000000
      3013        28  POPC      C35            18.5607185661       52.5774434266       51.4288984791  MEMB      22              0.0000000000
      3014        28  POPC      H5X            19.5456275974       52.0888203858       51.2557599162  MEMB      22              0.0000000000
      3015        28  POPC      H5Y            18.4089977202       53.3074773132       50.6046678537  MEMB      22              0.0000000000
      3016        28  POPC      C36            17.5100233049       51.4707778120       51.3736141716  MEMB      22              0.0000000000
      3017        28  POPC      H6X            16.4930901542       51.8965140728       51.2323702502  MEMB      22              0.0000000000
      3018        28  POPC      H6Y            17.5182751246       50.9337480632       52.3519736913  MEMB      22              0.0000000000
      3019        28  POPC      C37            17.8360317690       50.4480539233       50.2782084821  MEMB      22              0.0000000000
      3020        28  POPC      H7X            17.1390295169       49.5915850696       50.3975699018  MEMB      22              0.0000000000
      3021        28  POPC      H7Y            18.8644227001       50.0562829992       50.4215789403  MEMB      22              0.0000000000
      3022        28  POPC      C38            17.7619034362       50.9947797070       48.8470182943  MEMB      22              0.0000000000
      3023        28  POPC      H8X            18.6253498383       51.6576001309       48.6377962466  MEMB      22              0.0000000000
      3024        28  POPC      H8Y            16.8422942022       51.6178189081       48.7579323545  MEMB      22              0.0000000000
      3025        28  POPC      C39            17.6822878155       49.8593966144       47.8148688976  MEMB      22              0.0000000000
      3026        28  POPC      H9X            17.2766963351       50.2578455420       46.8649622521  MEMB      22              0.0000000000
      3027        28  POPC      H9Y            16.9445920002       49.1215825886       48.2004067847  MEMB      22              0.0000000000
      3028        28  POPC      C310           18.9782533306       49.0703495068       47.5655914685  MEMB      22              0.0000000000
      3029        28  POPC      H10X           18.6906370504       48.0284310758       47.2918824483  MEMB      22              0.0000000000
      3030        28  POPC      H10Y           19.5689629323       49.0107746360       48.5046113891  MEMB      22              0.0000000000
      3031        28  POPC      C311           19.8538134988       49.5998743136       46.4212241473  MEMB      22              0.0000000000
      3032        28  POPC      H11X           20.7878030235       48.9958205927       46.3773074360  MEMB      22              0.0000000000
      3033        28  POPC      H11Y           20.1445553516       50.6472420636       46.6240070737  MEMB      22              0.0000000000
      3034        28  POPC      C312           19.1785980077       49.5451659077       45.0476798936  MEMB      22              0.0000000000
      3035        28  POPC      H12X           18.3144608039       50.2410631512       45.0337432943  MEMB      22              0.0000000000
      3036        28  POPC      H12Y           18.8069014722       48.5126523140       44.8614085348  MEMB      22              0.0000000000
      3037        28  POPC      C313           20.1168799603       49.9614768941       43.9146858392  MEMB      22              0.0000000000
      3038        28  POPC      H13X           21.0148278259       49.3056427007       43.9248474302  MEMB      22              0.0000000000
      3039        28  POPC      H13Y           20.4650050839       51.0007233433       44.0993431428  MEMB      22              0.0000000000
      3040        28  POPC      C314           19.4459994322       49.8669229192       42.5386817909  MEMB      22              0.0000000000
      3041        28  POPC      H14X           18.6549375519       50.6418701380       42.4395150453  MEMB      22              0.0000000000
      3042        28  POPC      H14Y           18.9534719796       48.8698552812       42.4590956756  MEMB      22              0.0000000000
      3043        28  POPC      C315           20.4622544602       49.9815342169       41.3995425768  MEMB      22              0.0000000000
      3044        28  POPC      H15X           19.9623327568       49.7746704722       40.4261414374  MEMB      22              0.0000000000
      3045        28  POPC      H15Y           21.2096519188       49.1706022555       41.5632245259  MEMB      22              0.0000000000
      3046        28  POPC      C316           21.2070331198       51.3168616142       41.3127073302  MEMB      22              0.0000000000
      3047        28  POPC      H16X           22.2942381891       51.1573247488       41.1507040772  MEMB      22              0.0000000000
      3048        28  POPC      H16Y           21.0919869506       51.9094806675       42.2429525617  MEMB      22              0.0000000000
      3049        28  POPC      H16Z           20.8253316283       51.9234004256       40.4645802774  MEMB      22              0.0000000000
      3050        29  POPC      N              50.7209441838       21.8195651825       62.7653315530  MEMB      23              0.0000000000
      3051        29  POPC      C12            50.3307432515       21.4593486120       61.3343815223  MEMB      23              0.0000000000
      3052        29  POPC      H12A           50.8385236063       22.1078196779       60.6292899243  MEMB      23              0.0000000000
      3053        29  POPC      H12B           49.2677296372       21.6425358610       61.1966042408  MEMB      23              0.0000000000
      3054        29  POPC      C13            52.0431925539       21.2045892231       63.0876249440  MEMB      23              0.0000000000
      3055        29  POPC      H13A           52.3393544893       21.4632044752       64.0976896498  MEMB      23              0.0000000000
      3056        29  POPC      H13B           51.9399402687       20.1197032959       63.0114506751  MEMB      23              0.0000000000
      3057        29  POPC      H13C           52.7900868011       21.5069895188       62.3740739628  MEMB      23              0.0000000000
      3058        29  POPC      C14            50.7537411928       23.2946682063       63.0056099958  MEMB      23              0.0000000000
      3059        29  POPC      H14A           51.2451481940       23.5376104139       63.9537812149  MEMB      23              0.0000000000
      3060        29  POPC      H14B           51.2479227578       23.8170108876       62.2006504672  MEMB      23              0.0000000000
      3061        29  POPC      H14C           49.7426198167       23.6875848624       63.0734610625  MEMB      23              0.0000000000
      3062        29  POPC      C15            49.7086200138       21.2153998256       63.6910991783  MEMB      23              0.0000000000
      3063        29  POPC      H15A           49.9409703754       21.4392245046       64.7253530244  MEMB      23              0.0000000000
      3064        29  POPC      H15B           49.6985997541       20.1270575325       63.5561762159  MEMB      23              0.0000000000
      3065        29  POPC      H15C           48.7037887412       21.5394732068       63.4467541524  MEMB      23              0.0000000000
      3066        29  POPC      C11            50.5582014512       19.9840839067       60.8977566298  MEMB      23              0.0000000000
      3067        29  POPC      H11A           51.6443652452       19.7689055786       60.7822472067  MEMB      23              0.0000000000
      3068        29  POPC      H11B           50.1107088986       19.8983039876       59.8765755050  MEMB      23              0.0000000000
      3069        29  POPC      P              49.6851869902       17.5515911035       61.4234294995  MEMB      23              0.0000000000
      3070        29  POPC      O13            48.4272615402       17.1419946665       62.0851116132  MEMB      23              0.0000000000
      3071        29  POPC      O14            50.8999815505       16.7884607159       61.7528965756  MEMB      23              0.0000000000
      3072        29  POPC      O12            49.9648536596       19.0721238481       61.8303254825  MEMB      23              0.0000000000
      3073        29  POPC      O11            49.4333104341       17.6558791118       59.8758020929  MEMB      23              0.0000000000
      3074        29  POPC      C1             48.1425571710       18.0623560405       59.3786777693  MEMB      23              0.0000000000
      3075        29  POPC      HA             48.3141744040       18.9250794271       58.7002842768  MEMB      23              0.0000000000
      3076        29  POPC      HB             47.4252168332       18.4091331147       60.1636926597  MEMB      23              0.0000000000
      3077        29  POPC      C2             47.4542745540       16.9475202439       58.5373922139  MEMB      23              0.0000000000
      3078        29  POPC      HS             46.9199269162       16.2663469246       59.2363917095  MEMB      23              0.0000000000
      3079        29  POPC      O21            48.5236721472       16.2396159091       57.9042636325  MEMB      23              0.0000000000
      3080        29  POPC      C21            48.4054317875       15.5543714744       56.8272354784  MEMB      23              0.0000000000
      3081        29  POPC      O22            47.4117234368       15.0116254632       56.3694364462  MEMB      23              0.0000000000
      3082        29  POPC      C22            49.7955156273       15.5774065615       56.1856056573  MEMB      23              0.0000000000
      3083        29  POPC      H2R            50.0270252165       14.5421029945       55.8794095806  MEMB      23              0.0000000000
      3084        29  POPC      H2S            50.5477190715       15.8514498308       56.9586353999  MEMB      23              0.0000000000
      3085        29  POPC      C3             46.4394747672       17.5836829900       57.5316103881  MEMB      23              0.0000000000
      3086        29  POPC      HX             45.6743939879       18.1324933513       58.1342102578  MEMB      23              0.0000000000
      3087        29  POPC      HY             45.8985951513       16.7873139791       56.9754474130  MEMB      23              0.0000000000
      3088        29  POPC      O31            47.1559949656       18.4513502510       56.6186195229  MEMB      23              0.0000000000
      3089        29  POPC      C31            46.4909174748       19.4674725835       56.0966210853  MEMB      23              0.0000000000
      3090        29  POPC      O32            45.3342699725       19.7603890279       56.3221955226  MEMB      23              0.0000000000
      3091        29  POPC      C32            47.4189865764       20.2357050439       55.1383975031  MEMB      23              0.0000000000
      3092        29  POPC      H2X            48.1914188088       19.5307677577       54.7717164656  MEMB      23              0.0000000000
      3093        29  POPC      H2Y            47.9315006082       21.0305518410       55.7183329313  MEMB      23              0.0000000000
      3094        29  POPC      C23            49.9320009306       16.5787746959       55.0033839210  MEMB      23              0.0000000000
      3095        29  POPC      H3R            50.7483750564       16.1944256372       54.3497855314  MEMB      23              0.0000000000
      3096        29  POPC      H3S            50.2569584898       17.5692331781       55.3950958188  MEMB      23              0.0000000000
      3097        29  POPC      C24            48.6732574169       16.7992178059       54.1475321579  MEMB      23              0.0000000000
      3098        29  POPC      H4R            47.9486994714       17.4397889483       54.6823624302  MEMB      23              0.0000000000
      3099        29  POPC      H4S            48.1372824874       15.8445820258       53.9821164243  MEMB      23              0.0000000000
      3100        29  POPC      C25            49.0047267550       17.4120231813       52.7825400913  MEMB      23              0.0000000000
      3101        29  POPC      H5R            49.7725426815       16.7667257957       52.2967578179  MEMB      23              0.0000000000
      3102        29  POPC      H5S            49.4513991176       18.4221343871       52.9063649850  MEMB      23              0.0000000000
      3103        29  POPC      C26            47.7830136974       17.4852830543       51.8578627473  MEMB      23              0.0000000000
      3104        29  POPC      H6R            47.1728457871       18.3780227231       52.1158105644  MEMB      23              0.0000000000
      3105        29  POPC      H6S            47.1467976052       16.5907165153       52.0313543068  MEMB      23              0.0000000000
      3106        29  POPC      C27            48.1961239073       17.5212325927       50.3804256132  MEMB      23              0.0000000000
      3107        29  POPC      H7R            48.6568287058       16.5515411177       50.0906372682  MEMB      23              0.0000000000
      3108        29  POPC      H7S            49.0042058109       18.2793891109       50.2796920994  MEMB      23              0.0000000000
      3109        29  POPC      C28            47.0541460614       17.9126549681       49.4208828537  MEMB      23              0.0000000000
      3110        29  POPC      H8R            47.4668058065       18.6954078179       48.7512726061  MEMB      23              0.0000000000
      3111        29  POPC      H8S            46.2514036735       18.4158009833       50.0022219028  MEMB      23              0.0000000000
      3112        29  POPC      C29            46.4923405877       16.7635044789       48.6169955040  MEMB      23              0.0000000000
      3113        29  POPC      H91            46.1068279166       15.9179242692       49.2057278784  MEMB      23              0.0000000000
      3114        29  POPC      C210           46.4588258813       16.6595805416       47.2777444478  MEMB      23              0.0000000000
      3115        29  POPC      H101           46.0149054145       15.7558985425       46.8331497687  MEMB      23              0.0000000000
      3116        29  POPC      C211           46.9697704614       17.6570315363       46.2713520652  MEMB      23              0.0000000000
      3117        29  POPC      H11R           47.4626968138       18.5350208340       46.7382863901  MEMB      23              0.0000000000
      3118        29  POPC      H11S           46.1097739005       18.0663963254       45.6961530908  MEMB      23              0.0000000000
      3119        29  POPC      C212           47.9455810578       17.0293778361       45.2579778812  MEMB      23              0.0000000000
      3120        29  POPC      H12R           48.1314461551       17.7850957539       44.4711175497  MEMB      23              0.0000000000
      3121        29  POPC      H12S           47.4494052111       16.1682312365       44.7553096613  MEMB      23              0.0000000000
      3122        29  POPC      C213           49.3245420556       16.5705587854       45.7764855367  MEMB      23              0.0000000000
      3123        29  POPC      H13R           50.0419910097       16.6136320898       44.9277320672  MEMB      23              0.0000000000
      3124        29  POPC      H13S           49.2431457566       15.5079534519       46.0628065587  MEMB      23              0.0000000000
      3125        29  POPC      C214           49.9115273669       17.3247838914       46.9803962141  MEMB      23              0.0000000000
      3126        29  POPC      H14R           49.1753031716       17.2952489259       47.8101844331  MEMB      23              0.0000000000
      3127        29  POPC      H14S           50.0832112496       18.3904822535       46.7265407668  MEMB      23              0.0000000000
      3128        29  POPC      C215           51.1975343283       16.6741141056       47.5197128682  MEMB      23              0.0000000000
      3129        29  POPC      H15R           51.0016011551       15.5867208694       47.6670125303  MEMB      23              0.0000000000
      3130        29  POPC      H15S           51.4391289247       17.1021090280       48.5178998642  MEMB      23              0.0000000000
      3131        29  POPC      C216           52.4183772430       16.8429753060       46.6045370272  MEMB      23              0.0000000000
      3132        29  POPC      H16R           52.1512621490       16.5373075986       45.5718242219  MEMB      23              0.0000000000
      3133        29  POPC      H16S           53.2176205712       16.1510997350       46.9558198801  MEMB      23              0.0000000000
      3134        29  POPC      C217           52.9820728726       18.2711956216       46.6188335978  MEMB      23              0.0000000000
      3135        29  POPC      H17R           53.3222963948       18.4890602223       47.6582007413  MEMB      23              0.0000000000
      3136        29  POPC      H17S           52.1752080661       18.9965878899       46.3723396218  MEMB      23              0.0000000000
      3137        29  POPC      C218           54.1560977453       18.4857389447       45.6599782388  MEMB      23              0.0000000000
      3138        29  POPC      H18R           54.6885195651       19.4328216698       45.8940670024  MEMB      23              0.0000000000
      3139        29  POPC      H18S           53.8032698070       18.5344603768       44.6082695411  MEMB      23              0.0000000000
      3140        29  POPC      H18T           54.8846205189       17.6512511747       45.7462899598  MEMB      23              0.0000000000
      3141        29  POPC      C33            46.6933368829       20.8540906938       53.9118853751  MEMB      23              0.0000000000
      3142        29  POPC      H3X            46.0761603264       21.7197782515       54.2445863947  MEMB      23              0.0000000000
      3143        29  POPC      H3Y            46.0045493423       20.0976547233       53.4678499208  MEMB      23              0.0000000000
      3144        29  POPC      C34            47.6963694072       21.3008706680       52.8284205574  MEMB      23              0.0000000000
      3145        29  POPC      H4X            48.2647828699       20.4053712102       52.4947054116  MEMB      23              0.0000000000
      3146        29  POPC      H4Y            48.4242580840       22.0063995748       53.2897619449  MEMB      23              0.0000000000
      3147        29  POPC      C35            47.0707208496       21.9824516022       51.5944599243  MEMB      23              0.0000000000
      3148        29  POPC      H5X            46.5473612705       22.9045650460       51.9366486465  MEMB      23              0.0000000000
      3149        29  POPC      H5Y            46.3079558643       21.3158622867       51.1358698194  MEMB      23              0.0000000000
      3150        29  POPC      C36            48.1096476556       22.3736709384       50.5175381012  MEMB      23              0.0000000000
      3151        29  POPC      H6X            48.9642132007       22.8820412795       51.0135291850  MEMB      23              0.0000000000
      3152        29  POPC      H6Y            47.6509593511       23.0981337370       49.8084585073  MEMB      23              0.0000000000
      3153        29  POPC      C37            48.6258540384       21.1730811283       49.7059559453  MEMB      23              0.0000000000
      3154        29  POPC      H7X            47.7947900026       20.7870353451       49.0780969324  MEMB      23              0.0000000000
      3155        29  POPC      H7Y            48.9062629242       20.3718958147       50.4220758929  MEMB      23              0.0000000000
      3156        29  POPC      C38            49.8620513742       21.4322333287       48.8183576920  MEMB      23              0.0000000000
      3157        29  POPC      H8X            50.1197342454       20.4758337106       48.3072109463  MEMB      23              0.0000000000
      3158        29  POPC      H8Y            50.7202996524       21.6944937551       49.4766857858  MEMB      23              0.0000000000
      3159        29  POPC      C39            49.7103886078       22.5285653759       47.7509250090  MEMB      23              0.0000000000
      3160        29  POPC      H9X            50.6507838102       22.6078465850       47.1601321348  MEMB      23              0.0000000000
      3161        29  POPC      H9Y            49.5651782766       23.5025425548       48.2727683144  MEMB      23              0.0000000000
      3162        29  POPC      C310           48.5337544853       22.3235917427       46.7857898094  MEMB      23              0.0000000000
      3163        29  POPC      H10X           48.3867048190       23.2704278037       46.2151541925  MEMB      23              0.0000000000
      3164        29  POPC      H10Y           47.6077925650       22.1353247551       47.3698277236  MEMB      23              0.0000000000
      3165        29  POPC      C311           48.6893753041       21.1914264674       45.7623742648  MEMB      23              0.0000000000
      3166        29  POPC      H11X           48.8840879557       20.2272688939       46.2774501283  MEMB      23              0.0000000000
      3167        29  POPC      H11Y           49.5680456159       21.4051224298       45.1187789257  MEMB      23              0.0000000000
      3168        29  POPC      C312           47.4105940237       21.0685979688       44.9161169773  MEMB      23              0.0000000000
      3169        29  POPC      H12X           47.0495487831       22.0874776174       44.6559353501  MEMB      23              0.0000000000
      3170        29  POPC      H12Y           46.6284800825       20.5932808154       45.5521289810  MEMB      23              0.0000000000
      3171        29  POPC      C313           47.5609656848       20.2651884926       43.6175877439  MEMB      23              0.0000000000
      3172        29  POPC      H13X           46.6452020443       19.6383096631       43.4975030686  MEMB      23              0.0000000000
      3173        29  POPC      H13Y           48.4426474924       19.5971338733       43.6765947740  MEMB      23              0.0000000000
      3174        29  POPC      C314           47.6803462877       21.1407684911       42.3666258594  MEMB      23              0.0000000000
      3175        29  POPC      H14X           46.8616844900       21.8799198218       42.3843548839  MEMB      23              0.0000000000
      3176        29  POPC      H14Y           47.5134597485       20.5315807220       41.4537920062  MEMB      23              0.0000000000
      3177        29  POPC      C315           49.0331492570       21.8407571841       42.2201950846  MEMB      23              0.0000000000
      3178        29  POPC      H15X           49.3833184188       22.2130942046       43.2035748287  MEMB      23              0.0000000000
      3179        29  POPC      H15Y           48.9022055375       22.7359037841       41.5697180161  MEMB      23              0.0000000000
      3180        29  POPC      C316           50.0890201280       20.9351613583       41.5915840305  MEMB      23              0.0000000000
      3181        29  POPC      H16X           50.4687667922       20.1981971383       42.3314968506  MEMB      23              0.0000000000
      3182        29  POPC      H16Y           50.9355712969       21.5432425635       41.2170779894  MEMB      23              0.0000000000
      3183        29  POPC      H16Z           49.6651597461       20.3798406954       40.7279105552  MEMB      23              0.0000000000
      3184        30  POPS      N              11.8814983181       23.4568039421       63.1688229504  MEMB      24              0.0000000000
      3185        30  POPS      HN1            11.2248356460       24.1926189685       62.8190412507  MEMB      24              0.0000000000
      3186        30  POPS      HN2            11.9546580555       22.6102478360       62.5582673704  MEMB      24              0.0000000000
      3187        30  POPS      HN3            11.6958239093       23.2521277962       64.1722140624  MEMB      24              0.0000000000
      3188        30  POPS      C12            13.1620914263       24.1994124509       63.0063927861  MEMB      24              0.0000000000
      3189        30  POPS      H12A           13.9074341878       23.8029159121       63.6858832597  MEMB      24              0.0000000000
      3190        30  POPS      C13            12.9775814475       25.6807604539       63.2511611931  MEMB      24              0.0000000000
      3191        30  POPS      O13A           11.8079326841       26.1058179629       63.4723300512  MEMB      24              0.0000000000
      3192        30  POPS      O13B           14.0149696511       26.3949120957       63.2359634177  MEMB      24              0.0000000000
      3193        30  POPS      C11            13.5768349370       24.1098864599       61.5308891795  MEMB      24              0.0000000000
      3194        30  POPS      H11A           14.5306531241       24.6712237368       61.3562419827  MEMB      24              0.0000000000
      3195        30  POPS      H11B           12.8143037017       24.6215540858       60.8972324775  MEMB      24              0.0000000000
      3196        30  POPS      P              14.9152672260       21.9295694281       61.7398586732  MEMB      24              0.0000000000
      3197        30  POPS      O13            14.4452966785       21.3294478067       63.0110927718  MEMB      24              0.0000000000
      3198        30  POPS      O14            16.0526245930       22.8749005411       61.8265125271  MEMB      24              0.0000000000
      3199        30  POPS      O12            13.6622931427       22.7384656635       61.1590844269  MEMB      24              0.0000000000
      3200        30  POPS      O11            15.1629559207       20.8474909382       60.6449357204  MEMB      24              0.0000000000
      3201        30  POPS      C1             14.4926022153       20.8126831379       59.3971488691  MEMB      24              0.0000000000
      3202        30  POPS      HA             13.4272746571       21.1242149532       59.4433263185  MEMB      24              0.0000000000
      3203        30  POPS      HB             14.5197505052       19.7454722944       59.0967561155  MEMB      24              0.0000000000
      3204        30  POPS      C2             15.2649130718       21.5395068507       58.2767450522  MEMB      24              0.0000000000
      3205        30  POPS      HS             16.3300781637       21.2632538047       58.4684810194  MEMB      24              0.0000000000
      3206        30  POPS      O21            15.0930501027       22.9711446347       58.2726058863  MEMB      24              0.0000000000
      3207        30  POPS      C21            16.0165862001       23.5226999642       57.4763822457  MEMB      24              0.0000000000
      3208        30  POPS      O22            17.0532388042       22.9956756384       57.1311799737  MEMB      24              0.0000000000
      3209        30  POPS      C22            15.5680563996       24.8933293809       57.0193394156  MEMB      24              0.0000000000
      3210        30  POPS      H2R            15.4991035763       25.5129499294       57.9372320560  MEMB      24              0.0000000000
      3211        30  POPS      H2S            14.5609905789       24.8008956882       56.5816338467  MEMB      24              0.0000000000
      3212        30  POPS      C3             14.8507737626       20.9955671764       56.8827333401  MEMB      24              0.0000000000
      3213        30  POPS      HX             14.9055667184       19.8924565002       56.9191722516  MEMB      24              0.0000000000
      3214        30  POPS      HY             15.6523489252       21.2869357745       56.1808185810  MEMB      24              0.0000000000
      3215        30  POPS      O31            13.5179349466       21.4081388502       56.4600999946  MEMB      24              0.0000000000
      3216        30  POPS      C31            13.5153137223       22.3181220130       55.4863365429  MEMB      24              0.0000000000
      3217        30  POPS      O32            14.4901321477       22.9289680691       55.0962609987  MEMB      24              0.0000000000
      3218        30  POPS      C32            12.1614655988       22.4781430398       54.8029316922  MEMB      24              0.0000000000
      3219        30  POPS      H2X            12.0021117808       23.5666183228       54.6574046329  MEMB      24              0.0000000000
      3220        30  POPS      H2Y            11.3703961529       22.0884648188       55.4744730978  MEMB      24              0.0000000000
      3221        30  POPS      C23            16.5743449905       25.5281972443       56.0224788680  MEMB      24              0.0000000000
      3222        30  POPS      H3R            17.5932211430       25.2310615238       56.3448893496  MEMB      24              0.0000000000
      3223        30  POPS      H3S            16.5119620801       26.6374335558       56.0980284455  MEMB      24              0.0000000000
      3224        30  POPS      C24            16.4918964700       25.1835351167       54.5275478347  MEMB      24              0.0000000000
      3225        30  POPS      H4R            15.4762111508       25.3894374484       54.1292875064  MEMB      24              0.0000000000
      3226        30  POPS      H4S            16.7009525889       24.0977565214       54.3883993309  MEMB      24              0.0000000000
      3227        30  POPS      C25            17.5535443195       26.0084328109       53.7689947034  MEMB      24              0.0000000000
      3228        30  POPS      H5R            18.5079483259       25.9236565037       54.3413487144  MEMB      24              0.0000000000
      3229        30  POPS      H5S            17.2554996727       27.0796647218       53.7746109569  MEMB      24              0.0000000000
      3230        30  POPS      C26            17.8401333444       25.5557306719       52.3323533295  MEMB      24              0.0000000000
      3231        30  POPS      H6R            18.1195827926       24.4785348167       52.3600606988  MEMB      24              0.0000000000
      3232        30  POPS      H6S            18.7161905407       26.1120077253       51.9291832072  MEMB      24              0.0000000000
      3233        30  POPS      C27            16.6583254297       25.7733044387       51.3835738988  MEMB      24              0.0000000000
      3234        30  POPS      H7R            16.7825263858       26.7435427239       50.8576016467  MEMB      24              0.0000000000
      3235        30  POPS      H7S            15.7235986557       25.8625872100       51.9823786943  MEMB      24              0.0000000000
      3236        30  POPS      C28            16.4445754915       24.6099258570       50.3974600151  MEMB      24              0.0000000000
      3237        30  POPS      H8R            15.4334318892       24.7512220144       49.9505649631  MEMB      24              0.0000000000
      3238        30  POPS      H8S            16.3912984512       23.6629449157       50.9801079829  MEMB      24              0.0000000000
      3239        30  POPS      C29            17.4903507035       24.4979622748       49.3153974227  MEMB      24              0.0000000000
      3240        30  POPS      H91            18.2738071808       23.7393198917       49.4797773235  MEMB      24              0.0000000000
      3241        30  POPS      C210           17.5134319502       25.2524133043       48.2024104727  MEMB      24              0.0000000000
      3242        30  POPS      H101           18.2823429157       25.0705951307       47.4342055562  MEMB      24              0.0000000000
      3243        30  POPS      C211           16.4981880509       26.3211730206       47.8815724894  MEMB      24              0.0000000000
      3244        30  POPS      H11R           16.9450750508       27.1115300188       47.2433283263  MEMB      24              0.0000000000
      3245        30  POPS      H11S           16.1630281854       26.8306281322       48.8092271740  MEMB      24              0.0000000000
      3246        30  POPS      C212           15.2334902462       25.7704025162       47.2095479673  MEMB      24              0.0000000000
      3247        30  POPS      H12R           14.4653786417       26.5678294126       47.1669375811  MEMB      24              0.0000000000
      3248        30  POPS      H12S           14.7990845399       24.9419042225       47.8115249937  MEMB      24              0.0000000000
      3249        30  POPS      C213           15.4527213320       25.2941603939       45.7779831704  MEMB      24              0.0000000000
      3250        30  POPS      H13R           16.1169084845       24.4026507702       45.8081959533  MEMB      24              0.0000000000
      3251        30  POPS      H13S           15.9649814918       26.0761144068       45.1835727844  MEMB      24              0.0000000000
      3252        30  POPS      C214           14.1193071598       24.9471347638       45.1118628147  MEMB      24              0.0000000000
      3253        30  POPS      H14R           13.4663639692       24.4164445849       45.8387555338  MEMB      24              0.0000000000
      3254        30  POPS      H14S           14.3101441643       24.2668604209       44.2691649807  MEMB      24              0.0000000000
      3255        30  POPS      C215           13.3962826814       26.1445283353       44.4992183387  MEMB      24              0.0000000000
      3256        30  POPS      H15R           14.0671488454       26.6457236219       43.7662575885  MEMB      24              0.0000000000
      3257        30  POPS      H15S           13.1737874863       26.8718974904       45.3064857112  MEMB      24              0.0000000000
      3258        30  POPS      C216           12.0952304174       25.7374890545       43.7917769908  MEMB      24              0.0000000000
      3259        30  POPS      H16R           11.6016832139       26.6780494696       43.4654898310  MEMB      24              0.0000000000
      3260        30  POPS      H16S           11.4257920065       25.2429837426       44.5294547364  MEMB      24              0.0000000000
      3261        30  POPS      C217           12.2792166572       24.8179740406       42.5664808842  MEMB      24              0.0000000000
      3262        30  POPS      H17R           13.0783425708       24.0715115157       42.7420674563  MEMB      24              0.0000000000
      3263        30  POPS      H17S           12.6280639339       25.4337208969       41.7079584089  MEMB      24              0.0000000000
      3264        30  POPS      C218           11.0208756517       24.0337668508       42.1741731202  MEMB      24              0.0000000000
      3265        30  POPS      H18R           10.1372932268       24.6975467419       42.0905407764  MEMB      24              0.0000000000
      3266        30  POPS      H18S           10.8025383569       23.2534453075       42.9353115728  MEMB      24              0.0000000000
      3267        30  POPS      H18T           11.1704915885       23.5304374637       41.1960689743  MEMB      24              0.0000000000
      3268        30  POPS      C33            12.0981360102       21.7578939845       53.4216160359  MEMB      24              0.0000000000
      3269        30  POPS      H3X            11.0848999029       21.9310738522       53.0006780521  MEMB      24              0.0000000000
      3270        30  POPS      H3Y            12.1896626763       20.6687412030       53.5978928683  MEMB      24              0.0000000000
      3271        30  POPS      C34            13.1264832029       22.1570794156       52.3351223255  MEMB      24              0.0000000000
      3272        30  POPS      H4X            13.9951455432       22.6769063129       52.7937830007  MEMB      24              0.0000000000
      3273        30  POPS      H4Y            12.6642028046       22.8779001104       51.6254160729  MEMB      24              0.0000000000
      3274        30  POPS      C35            13.7087091452       20.9557192650       51.5510282435  MEMB      24              0.0000000000
      3275        30  POPS      H5X            14.2601730359       20.3103689496       52.2711973067  MEMB      24              0.0000000000
      3276        30  POPS      H5Y            14.4457481766       21.3337029033       50.8059630193  MEMB      24              0.0000000000
      3277        30  POPS      C36            12.6765051746       20.0725905621       50.8284081491  MEMB      24              0.0000000000
      3278        30  POPS      H6X            12.1351097307       20.6859050918       50.0748841689  MEMB      24              0.0000000000
      3279        30  POPS      H6Y            11.9247410494       19.7159151848       51.5646603527  MEMB      24              0.0000000000
      3280        30  POPS      C37            13.3075616554       18.8509139991       50.1300129587  MEMB      24              0.0000000000
      3281        30  POPS      H7X            12.7950565358       17.9145976159       50.4464514018  MEMB      24              0.0000000000
      3282        30  POPS      H7Y            14.3707092967       18.7695766643       50.4523877788  MEMB      24              0.0000000000
      3283        30  POPS      C38            13.2492478530       18.9778620385       48.5993272394  MEMB      24              0.0000000000
      3284        30  POPS      H8X            14.0686965882       18.4034789335       48.1208430915  MEMB      24              0.0000000000
      3285        30  POPS      H8Y            13.4275286432       20.0497701558       48.3695115013  MEMB      24              0.0000000000
      3286        30  POPS      C39            11.9114838498       18.4889910775       48.0047336089  MEMB      24              0.0000000000
      3287        30  POPS      H9X            11.0834725851       18.9476640434       48.5810236311  MEMB      24              0.0000000000
      3288        30  POPS      H9Y            11.8521930360       17.3947192733       48.1655538164  MEMB      24              0.0000000000
      3289        30  POPS      C310           11.6925796599       18.7620488432       46.5014666639  MEMB      24              0.0000000000
      3290        30  POPS      H10X           10.6131103951       18.6709581385       46.2512228820  MEMB      24              0.0000000000
      3291        30  POPS      H10Y           12.2314577853       17.9840706325       45.9158427267  MEMB      24              0.0000000000
      3292        30  POPS      C311           12.2135107328       20.1342986939       46.0692275550  MEMB      24              0.0000000000
      3293        30  POPS      H11X           13.2911390974       20.1173589843       46.3221194655  MEMB      24              0.0000000000
      3294        30  POPS      H11Y           11.7467858272       20.9533687173       46.6580914802  MEMB      24              0.0000000000
      3295        30  POPS      C312           12.0634110377       20.4375486943       44.5735748246  MEMB      24              0.0000000000
      3296        30  POPS      H12X           11.0177032393       20.7353752605       44.3749708636  MEMB      24              0.0000000000
      3297        30  POPS      H12Y           12.2903712577       19.5195844039       43.9828938885  MEMB      24              0.0000000000
      3298        30  POPS      C313           13.0064847346       21.5579787012       44.1133709695  MEMB      24              0.0000000000
      3299        30  POPS      H13X           12.7735189249       22.5019583537       44.6459787601  MEMB      24              0.0000000000
      3300        30  POPS      H13Y           12.8758935488       21.7639690273       43.0323545708  MEMB      24              0.0000000000
      3301        30  POPS      C314           14.4540509248       21.1334341774       44.3243362336  MEMB      24              0.0000000000
      3302        30  POPS      H14X           14.5627586935       20.1140641236       43.8812721136  MEMB      24              0.0000000000
      3303        30  POPS      H14Y           14.7035762345       21.0672079652       45.4035683456  MEMB      24              0.0000000000
      3304        30  POPS      C315           15.5098712485       22.0271285640       43.7120742823  MEMB      24              0.0000000000
      3305        30  POPS      H15X           15.6595865043       22.9351646839       44.3238379983  MEMB      24              0.0000000000
      3306        30  POPS      H15Y           15.2502198758       22.3273104497       42.6724465522  MEMB      24              0.0000000000
      3307        30  POPS      C316           16.8123748878       21.2734264976       43.7634947838  MEMB      24              0.0000000000
      3308        30  POPS      H16X           16.6819169932       20.2635098620       43.3230991690  MEMB      24              0.0000000000
      3309        30  POPS      H16Y           17.1514455436       21.1702496747       44.8188623276  MEMB      24              0.0000000000
      3310        30  POPS      H16Z           17.5765156789       21.8069724361       43.1811261188  MEMB      24              0.0000000000
      3311        31  POPC      N              35.7168113477       53.3013299723       61.8428613915  MEMB      25              0.0000000000
      3312        31  POPC      C12            35.0290561272       54.3665042064       62.6634273016  MEMB      25              0.0000000000
      3313        31  POPC      H12A           34.6883180157       53.9569045463       63.6079468305  MEMB      25              0.0000000000
      3314        31  POPC      H12B           34.1175314005       54.6481742834       62.1399180087  MEMB      25              0.0000000000
      3315        31  POPC      C13            35.7927263061       53.8139892826       60.4427208056  MEMB      25              0.0000000000
      3316        31  POPC      H13A           36.3512249982       53.1536731780       59.8101810717  MEMB      25              0.0000000000
      3317        31  POPC      H13B           34.8034040161       54.0056627741       60.0309547121  MEMB      25              0.0000000000
      3318        31  POPC      H13C           36.2787233683       54.7985699457       60.4622862326  MEMB      25              0.0000000000
      3319        31  POPC      C14            37.0960746079       53.0749393409       62.3612581086  MEMB      25              0.0000000000
      3320        31  POPC      H14A           37.6171191737       54.0257746043       62.4136197840  MEMB      25              0.0000000000
      3321        31  POPC      H14B           37.0742784194       52.6224331924       63.3516685565  MEMB      25              0.0000000000
      3322        31  POPC      H14C           37.6529080531       52.3949703928       61.7262216233  MEMB      25              0.0000000000
      3323        31  POPC      C15            34.9852374523       52.0089052720       61.9160392865  MEMB      25              0.0000000000
      3324        31  POPC      H15A           34.8378415020       51.7250249354       62.9560218256  MEMB      25              0.0000000000
      3325        31  POPC      H15B           35.5644872488       51.2175045119       61.4456970501  MEMB      25              0.0000000000
      3326        31  POPC      H15C           34.0219741965       52.0839503419       61.4308215559  MEMB      25              0.0000000000
      3327        31  POPC      C11            35.7848656943       55.6825600525       62.9373127825  MEMB      25              0.0000000000
      3328        31  POPC      H11A           36.6236313283       55.4990459755       63.6419959612  MEMB      25              0.0000000000
      3329        31  POPC      H11B           35.0532026409       56.3756991195       63.4210315458  MEMB      25              0.0000000000
      3330        31  POPC      P              36.4095370275       57.7576634688       61.4746259391  MEMB      25              0.0000000000
      3331        31  POPC      O13            36.8228145317       58.4145636159       62.7399959242  MEMB      25              0.0000000000
      3332        31  POPC      O14            35.1531601742       58.2141645506       60.8493985441  MEMB      25              0.0000000000
      3333        31  POPC      O12            36.3034214430       56.2115842120       61.7315662432  MEMB      25              0.0000000000
      3334        31  POPC      O11            37.6160751013       57.8245132119       60.4312860944  MEMB      25              0.0000000000
      3335        31  POPC      C1             38.5877906884       56.7699143691       60.3798896312  MEMB      25              0.0000000000
      3336        31  POPC      HA             38.0865445024       55.7773999249       60.4269440677  MEMB      25              0.0000000000
      3337        31  POPC      HB             39.2939072735       56.8467205407       61.2347455865  MEMB      25              0.0000000000
      3338        31  POPC      C2             39.4173135541       56.7347635290       59.0543222619  MEMB      25              0.0000000000
      3339        31  POPC      HS             40.1552911833       57.5662170384       59.0794574681  MEMB      25              0.0000000000
      3340        31  POPC      O21            38.5115048616       56.9593438821       57.9715899397  MEMB      25              0.0000000000
      3341        31  POPC      C21            38.8418905508       56.8942933666       56.7160805292  MEMB      25              0.0000000000
      3342        31  POPC      O22            39.7695899086       56.2947955530       56.2074876046  MEMB      25              0.0000000000
      3343        31  POPC      C22            37.8363024105       57.7345693902       55.9289398011  MEMB      25              0.0000000000
      3344        31  POPC      H2R            36.9268451226       57.1099350555       55.8464361611  MEMB      25              0.0000000000
      3345        31  POPC      H2S            38.2455333664       57.8952383375       54.9144385160  MEMB      25              0.0000000000
      3346        31  POPC      C3             40.1583134472       55.3749812573       58.9615907496  MEMB      25              0.0000000000
      3347        31  POPC      HX             40.8774158148       55.3075745065       59.8065155296  MEMB      25              0.0000000000
      3348        31  POPC      HY             40.7638395809       55.3365773879       58.0273868170  MEMB      25              0.0000000000
      3349        31  POPC      O31            39.1656076623       54.3270769910       59.0565801173  MEMB      25              0.0000000000
      3350        31  POPC      C31            39.4264053903       53.2702022864       58.3230988386  MEMB      25              0.0000000000
      3351        31  POPC      O32            40.5466851041       52.9193160203       57.9881667958  MEMB      25              0.0000000000
      3352        31  POPC      C32            38.1189559163       52.6476252407       57.8331924684  MEMB      25              0.0000000000
      3353        31  POPC      H2X            37.2738498388       53.0519438345       58.4059918335  MEMB      25              0.0000000000
      3354        31  POPC      H2Y            38.1981894984       51.5523144370       58.0058545434  MEMB      25              0.0000000000
      3355        31  POPC      C23            37.4245554025       59.0660102517       56.6113988149  MEMB      25              0.0000000000
      3356        31  POPC      H3R            38.2432403326       59.8149108467       56.5585970075  MEMB      25              0.0000000000
      3357        31  POPC      H3S            37.2183393435       58.8624755815       57.6925296937  MEMB      25              0.0000000000
      3358        31  POPC      C24            36.1100646925       59.6333591039       56.0439101937  MEMB      25              0.0000000000
      3359        31  POPC      H4R            35.5453834408       60.0927233098       56.8903041221  MEMB      25              0.0000000000
      3360        31  POPC      H4S            35.4789048103       58.8080801185       55.6468019714  MEMB      25              0.0000000000
      3361        31  POPC      C25            36.2961283018       60.7206605278       54.9782931198  MEMB      25              0.0000000000
      3362        31  POPC      H5R            36.8973544568       61.5370656611       55.4406296163  MEMB      25              0.0000000000
      3363        31  POPC      H5S            35.3127498195       61.1605829717       54.7040878233  MEMB      25              0.0000000000
      3364        31  POPC      C26            37.0223093965       60.2809353886       53.6992437237  MEMB      25              0.0000000000
      3365        31  POPC      H6R            37.9297636031       59.6853819152       53.9109230927  MEMB      25              0.0000000000
      3366        31  POPC      H6S            37.3926868003       61.2119134558       53.2275093689  MEMB      25              0.0000000000
      3367        31  POPC      C27            36.1642425026       59.6249831405       52.6081037234  MEMB      25              0.0000000000
      3368        31  POPC      H7R            35.0939922801       59.8958686596       52.7416144203  MEMB      25              0.0000000000
      3369        31  POPC      H7S            36.2488746897       58.5184280438       52.6800258862  MEMB      25              0.0000000000
      3370        31  POPC      C28            36.6493770956       60.1422097400       51.2357156595  MEMB      25              0.0000000000
      3371        31  POPC      H8R            37.7610793952       60.0557966105       51.2415394742  MEMB      25              0.0000000000
      3372        31  POPC      H8S            36.4353364190       61.2340806172       51.1872113158  MEMB      25              0.0000000000
      3373        31  POPC      C29            36.0900302374       59.4687396168       50.0121588956  MEMB      25              0.0000000000
      3374        31  POPC      H91            35.1639292831       59.9037860927       49.6034258712  MEMB      25              0.0000000000
      3375        31  POPC      C210           36.6457871220       58.3980056554       49.4181180556  MEMB      25              0.0000000000
      3376        31  POPC      H101           36.1903183615       57.9793101946       48.5070438244  MEMB      25              0.0000000000
      3377        31  POPC      C211           37.8987956581       57.7048589323       49.8850465709  MEMB      25              0.0000000000
      3378        31  POPC      H11R           37.8517230359       56.6224160421       49.6388963477  MEMB      25              0.0000000000
      3379        31  POPC      H11S           37.9736194601       57.7581759505       50.9964528669  MEMB      25              0.0000000000
      3380        31  POPC      C212           39.2184407167       58.2628447681       49.3209287264  MEMB      25              0.0000000000
      3381        31  POPC      H12R           39.9973707027       57.7548319367       49.9304442172  MEMB      25              0.0000000000
      3382        31  POPC      H12S           39.3143767198       59.3526835100       49.5102385888  MEMB      25              0.0000000000
      3383        31  POPC      C213           39.4950606858       57.9356716551       47.8419035084  MEMB      25              0.0000000000
      3384        31  POPC      H13R           39.0531693904       56.9423838321       47.6116364241  MEMB      25              0.0000000000
      3385        31  POPC      H13S           40.5947918781       57.8554353283       47.6801485099  MEMB      25              0.0000000000
      3386        31  POPC      C214           38.9610054844       58.9902232217       46.8608495269  MEMB      25              0.0000000000
      3387        31  POPC      H14R           39.7786213517       59.6970855506       46.6007546052  MEMB      25              0.0000000000
      3388        31  POPC      H14S           38.1478463666       59.5637548637       47.3562861100  MEMB      25              0.0000000000
      3389        31  POPC      C215           38.4067652834       58.3956289494       45.5662067146  MEMB      25              0.0000000000
      3390        31  POPC      H15R           37.7273926948       57.5603635605       45.8485179479  MEMB      25              0.0000000000
      3391        31  POPC      H15S           39.2494289120       57.9796264028       44.9780426603  MEMB      25              0.0000000000
      3392        31  POPC      C216           37.6278412299       59.3987906096       44.6986007037  MEMB      25              0.0000000000
      3393        31  POPC      H16R           38.2435543240       60.3067147944       44.5137168967  MEMB      25              0.0000000000
      3394        31  POPC      H16S           36.7237115669       59.7149513397       45.2654814247  MEMB      25              0.0000000000
      3395        31  POPC      C217           37.1795916987       58.8092931243       43.3542569184  MEMB      25              0.0000000000
      3396        31  POPC      H17R           38.0148296727       58.7954729312       42.6400568007  MEMB      25              0.0000000000
      3397        31  POPC      H17S           36.4206345436       59.4709738368       42.8821354313  MEMB      25              0.0000000000
      3398        31  POPC      C218           36.6828194348       57.3696190432       43.4442916760  MEMB      25              0.0000000000
      3399        31  POPC      H18R           35.9018728354       57.2781004917       44.2262578890  MEMB      25              0.0000000000
      3400        31  POPC      H18S           37.5041512863       56.6718787140       43.7092358608  MEMB      25              0.0000000000
      3401        31  POPC      H18T           36.2814130231       57.0533418753       42.4579929672  MEMB      25              0.0000000000
      3402        31  POPC      C33            37.9024598644       52.9540542342       56.3363052724  MEMB      25              0.0000000000
      3403        31  POPC      H3X            37.6497935991       52.0114455081       55.8018130450  MEMB      25              0.0000000000
      3404        31  POPC      H3Y            38.8599641684       53.3178119240       55.8992499757  MEMB      25              0.0000000000
      3405        31  POPC      C34            36.8364527844       54.0029575361       55.9837826538  MEMB      25              0.0000000000
      3406        31  POPC      H4X            36.9018601003       54.8835870042       56.6557781853  MEMB      25              0.0000000000
      3407        31  POPC      H4Y            35.8244173286       53.5628205953       56.1064525755  MEMB      25              0.0000000000
      3408        31  POPC      C35            37.0576268112       54.4220523980       54.5201037476  MEMB      25              0.0000000000
      3409        31  POPC      H5X            37.1548421778       53.4821108773       53.9316612920  MEMB      25              0.0000000000
      3410        31  POPC      H5Y            38.0329806819       54.9518965993       54.4327701461  MEMB      25              0.0000000000
      3411        31  POPC      C36            35.9569099073       55.2734235729       53.8802555583  MEMB      25              0.0000000000
      3412        31  POPC      H6X            36.0283444403       56.3274404728       54.2197275141  MEMB      25              0.0000000000
      3413        31  POPC      H6Y            34.9559801169       54.8961852793       54.1840054116  MEMB      25              0.0000000000
      3414        31  POPC      C37            36.0360085717       55.2766929494       52.3423347320  MEMB      25              0.0000000000
      3415        31  POPC      H7X            37.0415332175       55.6154416887       52.0069184135  MEMB      25              0.0000000000
      3416        31  POPC      H7Y            35.3055972457       56.0317709111       51.9873828065  MEMB      25              0.0000000000
      3417        31  POPC      C38            35.7150384965       53.9025913136       51.7265161347  MEMB      25              0.0000000000
      3418        31  POPC      H8X            35.0187895213       53.3729134398       52.4166284831  MEMB      25              0.0000000000
      3419        31  POPC      H8Y            36.6513097504       53.3035542071       51.6787683972  MEMB      25              0.0000000000
      3420        31  POPC      C39            35.0411209354       53.9194635023       50.3414314589  MEMB      25              0.0000000000
      3421        31  POPC      H9X            33.9466492478       54.0605990815       50.4810236172  MEMB      25              0.0000000000
      3422        31  POPC      H9Y            35.1862060913       52.9270850524       49.8579963518  MEMB      25              0.0000000000
      3423        31  POPC      C310           35.5165473304       55.0109129440       49.3790973745  MEMB      25              0.0000000000
      3424        31  POPC      H10X           36.5967497182       54.8996956872       49.1711683241  MEMB      25              0.0000000000
      3425        31  POPC      H10Y           35.4222869361       56.0056940681       49.8548493837  MEMB      25              0.0000000000
      3426        31  POPC      C311           34.6649553700       55.0585270746       48.0992234328  MEMB      25              0.0000000000
      3427        31  POPC      H11X           34.8446572049       56.0445703445       47.6097564410  MEMB      25              0.0000000000
      3428        31  POPC      H11Y           33.5853583450       54.9907356427       48.3613943204  MEMB      25              0.0000000000
      3429        31  POPC      C312           35.0151277025       54.0011378639       47.0581137060  MEMB      25              0.0000000000
      3430        31  POPC      H12X           34.4690912376       54.2356676058       46.1140116953  MEMB      25              0.0000000000
      3431        31  POPC      H12Y           34.7051809234       52.9871078431       47.3933066551  MEMB      25              0.0000000000
      3432        31  POPC      C313           36.5123978477       54.0169636573       46.7834680344  MEMB      25              0.0000000000
      3433        31  POPC      H13X           37.0637377958       53.5896825022       47.6519997459  MEMB      25              0.0000000000
      3434        31  POPC      H13Y           36.8323754369       55.0779691984       46.6557691454  MEMB      25              0.0000000000
      3435        31  POPC      C314           36.8775393668       53.2102604803       45.5542017671  MEMB      25              0.0000000000
      3436        31  POPC      H14X           36.4860770054       53.7300722943       44.6524571143  MEMB      25              0.0000000000
      3437        31  POPC      H14Y           36.3872434907       52.2160259251       45.6246753224  MEMB      25              0.0000000000
      3438        31  POPC      C315           38.3900408683       53.0573929188       45.4271954275  MEMB      25              0.0000000000
      3439        31  POPC      H15X           38.5879443284       52.6093519919       44.4319974778  MEMB      25              0.0000000000
      3440        31  POPC      H15Y           38.7609080875       52.3439836685       46.1985225874  MEMB      25              0.0000000000
      3441        31  POPC      C316           39.1119420896       54.3991421900       45.5676074765  MEMB      25              0.0000000000
      3442        31  POPC      H16X           40.1496660050       54.3594172589       45.1904501829  MEMB      25              0.0000000000
      3443        31  POPC      H16Y           39.1372118552       54.7271098681       46.6284412911  MEMB      25              0.0000000000
      3444        31  POPC      H16Z           38.5802938408       55.1726938424       44.9753631847  MEMB      25              0.0000000000
      3445        32  POPC      N              54.7619381713       27.4773731687       62.1284566314  MEMB      26              0.0000000000
      3446        32  POPC      C12            54.2697970612       28.1265887474       60.8302210886  MEMB      26              0.0000000000
      3447        32  POPC      H12A           53.2336185479       27.8503556597       60.6262753599  MEMB      26              0.0000000000
      3448        32  POPC      H12B           54.8452862732       27.7596910848       59.9932180566  MEMB      26              0.0000000000
      3449        32  POPC      C13            54.0276493499       28.0567688784       63.3038163332  MEMB      26              0.0000000000
      3450        32  POPC      H13A           54.3488745149       27.6335023614       64.2394309928  MEMB      26              0.0000000000
      3451        32  POPC      H13B           54.1731863546       29.1398451841       63.3176589928  MEMB      26              0.0000000000
      3452        32  POPC      H13C           52.9504826984       27.9394527697       63.2099169606  MEMB      26              0.0000000000
      3453        32  POPC      C14            54.5065457839       26.0069545271       62.1473853767  MEMB      26              0.0000000000
      3454        32  POPC      H14A           54.9799920758       25.5054998745       61.3141923469  MEMB      26              0.0000000000
      3455        32  POPC      H14B           54.8855935401       25.5965742016       63.0797821365  MEMB      26              0.0000000000
      3456        32  POPC      H14C           53.4400289897       25.8091941954       62.1218389005  MEMB      26              0.0000000000
      3457        32  POPC      C15            56.2284889941       27.7459051194       62.3080422929  MEMB      26              0.0000000000
      3458        32  POPC      H15A           56.4110537632       28.8135181223       62.3347038668  MEMB      26              0.0000000000
      3459        32  POPC      H15B           56.8044389511       27.3365886915       61.4887302329  MEMB      26              0.0000000000
      3460        32  POPC      H15C           56.6098727362       27.3089668372       63.2235127870  MEMB      26              0.0000000000
      3461        32  POPC      C11            54.2799778444       29.6740003622       60.7543078294  MEMB      26              0.0000000000
      3462        32  POPC      H11A           54.0390152883       30.0011659850       59.7126889610  MEMB      26              0.0000000000
      3463        32  POPC      H11B           55.2992818712       30.0621512343       60.9657061028  MEMB      26              0.0000000000
      3464        32  POPC      P              51.8237934392       30.3424793630       61.3776022502  MEMB      26              0.0000000000
      3465        32  POPC      O13            51.6169939130       31.6747888837       60.7935332710  MEMB      26              0.0000000000
      3466        32  POPC      O14            51.0543363531       29.9687154878       62.5873426304  MEMB      26              0.0000000000
      3467        32  POPC      O12            53.3641943521       30.2288450569       61.6919515382  MEMB      26              0.0000000000
      3468        32  POPC      O11            51.6332567182       29.2304890789       60.2457993818  MEMB      26              0.0000000000
      3469        32  POPC      C1             50.7715962318       28.1175002499       60.5361746427  MEMB      26              0.0000000000
      3470        32  POPC      HA             49.7509483565       28.4745338989       60.8088972415  MEMB      26              0.0000000000
      3471        32  POPC      HB             51.1855256513       27.5386385780       61.3926940402  MEMB      26              0.0000000000
      3472        32  POPC      C2             50.6040830364       27.1074295633       59.3513263806  MEMB      26              0.0000000000
      3473        32  POPC      HS             50.0752231234       26.2125410690       59.7532140151  MEMB      26              0.0000000000
      3474        32  POPC      O21            51.9180010378       26.7478355821       58.8686578591  MEMB      26              0.0000000000
      3475        32  POPC      C21            51.9789801934       25.8387471719       57.9010914813  MEMB      26              0.0000000000
      3476        32  POPC      O22            51.1335422489       24.9960090037       57.6674535620  MEMB      26              0.0000000000
      3477        32  POPC      C22            53.3020508235       25.9952750657       57.1612174268  MEMB      26              0.0000000000
      3478        32  POPC      H2R            53.8168139867       25.0162118348       57.1583178237  MEMB      26              0.0000000000
      3479        32  POPC      H2S            53.9395933971       26.7309584981       57.6942620396  MEMB      26              0.0000000000
      3480        32  POPC      C3             49.7074188999       27.7021915858       58.2046263858  MEMB      26              0.0000000000
      3481        32  POPC      HX             48.7190186489       27.9645191326       58.6502492209  MEMB      26              0.0000000000
      3482        32  POPC      HY             49.4852390493       26.8909309393       57.4737014483  MEMB      26              0.0000000000
      3483        32  POPC      O31            50.3368979946       28.8138704738       57.5197885433  MEMB      26              0.0000000000
      3484        32  POPC      C31            49.9838937384       30.0364831311       57.8902993179  MEMB      26              0.0000000000
      3485        32  POPC      O32            49.0401403658       30.3289283800       58.6078294537  MEMB      26              0.0000000000
      3486        32  POPC      C32            50.9093529587       31.0961280200       57.2631031895  MEMB      26              0.0000000000
      3487        32  POPC      H2X            51.4104370162       31.5853920095       58.1267241258  MEMB      26              0.0000000000
      3488        32  POPC      H2Y            50.2653563186       31.8452243991       56.7595135633  MEMB      26              0.0000000000
      3489        32  POPC      C23            53.0785371280       26.4774391639       55.7127976530  MEMB      26              0.0000000000
      3490        32  POPC      H3R            52.3916980397       27.3579119228       55.7173069928  MEMB      26              0.0000000000
      3491        32  POPC      H3S            52.5968671088       25.6759261347       55.1072034924  MEMB      26              0.0000000000
      3492        32  POPC      C24            54.3946521558       26.9077321360       55.0535113614  MEMB      26              0.0000000000
      3493        32  POPC      H4R            55.0809530818       26.0395888851       54.9663493822  MEMB      26              0.0000000000
      3494        32  POPC      H4S            54.8835381204       27.6512540600       55.7252032708  MEMB      26              0.0000000000
      3495        32  POPC      C25            54.1888539477       27.5806736080       53.6875504493  MEMB      26              0.0000000000
      3496        32  POPC      H5R            55.0988337246       28.1766705657       53.4434391114  MEMB      26              0.0000000000
      3497        32  POPC      H5S            53.3324284474       28.2813803868       53.7674057651  MEMB      26              0.0000000000
      3498        32  POPC      C26            53.9240860556       26.6170266039       52.5243719854  MEMB      26              0.0000000000
      3499        32  POPC      H6R            53.0682275253       25.9474411059       52.7526729331  MEMB      26              0.0000000000
      3500        32  POPC      H6S            54.8185603007       25.9766608738       52.4131288014  MEMB      26              0.0000000000
      3501        32  POPC      C27            53.6721997529       27.3631708726       51.1997188928  MEMB      26              0.0000000000
      3502        32  POPC      H7R            54.1834562981       28.3520751521       51.2516317068  MEMB      26              0.0000000000
      3503        32  POPC      H7S            52.5798535664       27.5548942128       51.1113869107  MEMB      26              0.0000000000
      3504        32  POPC      C28            54.1989073895       26.6232718520       49.9500555576  MEMB      26              0.0000000000
      3505        32  POPC      H8R            53.7975568271       25.5856636988       49.9622617746  MEMB      26              0.0000000000
      3506        32  POPC      H8S            55.3029172941       26.5447091870       50.0515351102  MEMB      26              0.0000000000
      3507        32  POPC      C29            53.8236958851       27.3118406388       48.6560466897  MEMB      26              0.0000000000
      3508        32  POPC      H91            52.7398923688       27.4534906581       48.5124523833  MEMB      26              0.0000000000
      3509        32  POPC      C210           54.6596108644       27.7294201667       47.6797402309  MEMB      26              0.0000000000
      3510        32  POPC      H101           54.2397610363       28.2280185306       46.7961376440  MEMB      26              0.0000000000
      3511        32  POPC      C211           56.1618914315       27.6104172970       47.6412752711  MEMB      26              0.0000000000
      3512        32  POPC      H11R           56.5779286028       27.5903591808       48.6736077056  MEMB      26              0.0000000000
      3513        32  POPC      H11S           56.6175169549       28.4891466313       47.1330948632  MEMB      26              0.0000000000
      3514        32  POPC      C212           56.6212934403       26.3234363342       46.9285553005  MEMB      26              0.0000000000
      3515        32  POPC      H12R           56.0000948123       25.4694220750       47.2823530896  MEMB      26              0.0000000000
      3516        32  POPC      H12S           57.6681984557       26.1105719569       47.2420238870  MEMB      26              0.0000000000
      3517        32  POPC      C213           56.5862707875       26.3560635322       45.3881320371  MEMB      26              0.0000000000
      3518        32  POPC      H13R           55.6917821641       26.8992919068       45.0156251508  MEMB      26              0.0000000000
      3519        32  POPC      H13S           56.4923926557       25.2995244212       45.0432276288  MEMB      26              0.0000000000
      3520        32  POPC      C214           57.8745637094       26.9313695767       44.7697610667  MEMB      26              0.0000000000
      3521        32  POPC      H14R           58.7508785995       26.6379122349       45.3839959004  MEMB      26              0.0000000000
      3522        32  POPC      H14S           57.8218081179       28.0379327679       44.8065165447  MEMB      26              0.0000000000
      3523        32  POPC      C215           58.1175255695       26.4432127010       43.3324863773  MEMB      26              0.0000000000
      3524        32  POPC      H15R           57.4041517597       26.9716430142       42.6762499816  MEMB      26              0.0000000000
      3525        32  POPC      H15S           57.8957142243       25.3545560870       43.2677639882  MEMB      26              0.0000000000
      3526        32  POPC      C216           59.5386882208       26.6495518631       42.7819940823  MEMB      26              0.0000000000
      3527        32  POPC      H16R           59.5377347078       26.4011471581       41.6974247926  MEMB      26              0.0000000000
      3528        32  POPC      H16S           60.2262262916       25.9273783345       43.2676855775  MEMB      26              0.0000000000
      3529        32  POPC      C217           60.1401840994       28.0413328272       42.9951506011  MEMB      26              0.0000000000
      3530        32  POPC      H17R           61.0842631660       28.1016879707       42.4046835205  MEMB      26              0.0000000000
      3531        32  POPC      H17S           60.4134830655       28.1402221306       44.0713795242  MEMB      26              0.0000000000
      3532        32  POPC      C218           59.2651650802       29.2296578558       42.6132289172  MEMB      26              0.0000000000
      3533        32  POPC      H18R           58.3603843733       29.3116295151       43.2521595586  MEMB      26              0.0000000000
      3534        32  POPC      H18S           58.9404510151       29.2129997125       41.5580409946  MEMB      26              0.0000000000
      3535        32  POPC      H18T           59.8737589786       30.1446027247       42.7535765496  MEMB      26              0.0000000000
      3536        32  POPC      C33            52.0239219946       30.6198731816       56.2913809739  MEMB      26              0.0000000000
      3537        32  POPC      H3X            52.5145095610       29.6904009295       56.6535776438  MEMB      26              0.0000000000
      3538        32  POPC      H3Y            52.8037792329       31.4186251127       56.2962513001  MEMB      26              0.0000000000
      3539        32  POPC      C34            51.5601364168       30.4623688239       54.8338749113  MEMB      26              0.0000000000
      3540        32  POPC      H4X            50.6403033230       31.0666458569       54.6682903025  MEMB      26              0.0000000000
      3541        32  POPC      H4Y            51.2968488283       29.3968965105       54.6516224235  MEMB      26              0.0000000000
      3542        32  POPC      C35            52.5985526578       30.9274205961       53.7939281765  MEMB      26              0.0000000000
      3543        32  POPC      H5X            53.5680655358       30.4102132885       53.9663806490  MEMB      26              0.0000000000
      3544        32  POPC      H5Y            52.7802869073       32.0179921632       53.9154193072  MEMB      26              0.0000000000
      3545        32  POPC      C36            52.1219691717       30.6607752730       52.3551852566  MEMB      26              0.0000000000
      3546        32  POPC      H6X            51.1095387467       31.1050623588       52.2346470585  MEMB      26              0.0000000000
      3547        32  POPC      H6Y            52.0207437226       29.5614925546       52.2176718907  MEMB      26              0.0000000000
      3548        32  POPC      C37            53.0473708363       31.2273756125       51.2610569822  MEMB      26              0.0000000000
      3549        32  POPC      H7X            54.0893163815       30.8939932301       51.4742416814  MEMB      26              0.0000000000
      3550        32  POPC      H7Y            53.0380186633       32.3380831699       51.3069075851  MEMB      26              0.0000000000
      3551        32  POPC      C38            52.6783907707       30.7650698796       49.8337367231  MEMB      26              0.0000000000
      3552        32  POPC      H8X            52.6683531179       29.6534800490       49.8272832890  MEMB      26              0.0000000000
      3553        32  POPC      H8Y            53.4718934169       31.0889699655       49.1236376516  MEMB      26              0.0000000000
      3554        32  POPC      C39            51.3153371363       31.2691649777       49.3222112849  MEMB      26              0.0000000000
      3555        32  POPC      H9X            51.3898830151       32.3367260354       49.0245232422  MEMB      26              0.0000000000
      3556        32  POPC      H9Y            50.5794279948       31.2086363622       50.1547815480  MEMB      26              0.0000000000
      3557        32  POPC      C310           50.7315263887       30.4383871240       48.1615913089  MEMB      26              0.0000000000
      3558        32  POPC      H10X           49.6625232746       30.7254315987       48.0315933663  MEMB      26              0.0000000000
      3559        32  POPC      H10Y           50.7602076120       29.3654375276       48.4519560137  MEMB      26              0.0000000000
      3560        32  POPC      C311           51.4290763841       30.6276319362       46.8071206574  MEMB      26              0.0000000000
      3561        32  POPC      H11X           52.5216233320       30.4461225748       46.9173858275  MEMB      26              0.0000000000
      3562        32  POPC      H11Y           51.2947033951       31.6860175330       46.4864170302  MEMB      26              0.0000000000
      3563        32  POPC      C312           50.8747411176       29.6973849752       45.7094472472  MEMB      26              0.0000000000
      3564        32  POPC      H12X           51.2492596710       30.0474737098       44.7216271418  MEMB      26              0.0000000000
      3565        32  POPC      H12Y           49.7652571441       29.7620634701       45.6798107335  MEMB      26              0.0000000000
      3566        32  POPC      C313           51.3048699649       28.2323705343       45.8955180456  MEMB      26              0.0000000000
      3567        32  POPC      H13X           50.7417545471       27.7994287861       46.7509011205  MEMB      26              0.0000000000
      3568        32  POPC      H13Y           52.3796429674       28.2081488574       46.1565358977  MEMB      26              0.0000000000
      3569        32  POPC      C314           51.1236485427       27.3622710819       44.6435655768  MEMB      26              0.0000000000
      3570        32  POPC      H14X           52.0760021490       27.3129373960       44.0698046113  MEMB      26              0.0000000000
      3571        32  POPC      H14Y           50.3876516303       27.8559116993       43.9816938949  MEMB      26              0.0000000000
      3572        32  POPC      C315           50.6307744698       25.9459848604       44.9613257955  MEMB      26              0.0000000000
      3573        32  POPC      H15X           49.7826119977       26.0102222300       45.6819396540  MEMB      26              0.0000000000
      3574        32  POPC      H15Y           51.4486085534       25.3796080445       45.4629169432  MEMB      26              0.0000000000
      3575        32  POPC      C316           50.1537861703       25.1827800139       43.7236272880  MEMB      26              0.0000000000
      3576        32  POPC      H16X           49.7906444448       24.1743817532       44.0139744755  MEMB      26              0.0000000000
      3577        32  POPC      H16Y           50.9733190240       25.0672919927       42.9831006092  MEMB      26              0.0000000000
      3578        32  POPC      H16Z           49.3130533682       25.7215841181       43.2347782143  MEMB      26              0.0000000000
      3579        33  POPC      N              39.6778537366        9.5713024673       63.1296926069  MEMB      27              0.0000000000
      3580        33  POPC      C12            38.6633615210        8.9097050658       62.2108877375  MEMB      27              0.0000000000
      3581        33  POPC      H12A           38.2401220426        9.6762212982       61.5685930738  MEMB      27              0.0000000000
      3582        33  POPC      H12B           37.8274643179        8.5499243315       62.8005561516  MEMB      27              0.0000000000
      3583        33  POPC      C13            40.3671736856        8.5390673860       63.9676634301  MEMB      27              0.0000000000
      3584        33  POPC      H13A           39.6707062191        7.9622494545       64.5481015219  MEMB      27              0.0000000000
      3585        33  POPC      H13B           40.9142462060        7.8593069815       63.3045085941  MEMB      27              0.0000000000
      3586        33  POPC      H13C           41.0894662838        8.9952218282       64.6369767046  MEMB      27              0.0000000000
      3587        33  POPC      C14            40.7568897531       10.2124107214       62.3310011791  MEMB      27              0.0000000000
      3588        33  POPC      H14A           41.5367350509       10.6530318179       62.9293166633  MEMB      27              0.0000000000
      3589        33  POPC      H14B           41.2134461000        9.4480685504       61.6988831638  MEMB      27              0.0000000000
      3590        33  POPC      H14C           40.3677642142       10.9502229419       61.6463964977  MEMB      27              0.0000000000
      3591        33  POPC      C15            39.0328257768       10.6311130195       63.9472345948  MEMB      27              0.0000000000
      3592        33  POPC      H15A           39.6976463262       10.9386054266       64.7523267500  MEMB      27              0.0000000000
      3593        33  POPC      H15B           38.1044596787       10.3040002895       64.4024548767  MEMB      27              0.0000000000
      3594        33  POPC      H15C           38.8128872117       11.5118192991       63.3495738499  MEMB      27              0.0000000000
      3595        33  POPC      C11            39.1298292579        7.7642210079       61.2877591973  MEMB      27              0.0000000000
      3596        33  POPC      H11A           38.2459220923        7.3569243681       60.7485943187  MEMB      27              0.0000000000
      3597        33  POPC      H11B           39.5566347046        6.9263260014       61.8924785952  MEMB      27              0.0000000000
      3598        33  POPC      P              41.3180120761        7.4982018970       59.8593031225  MEMB      27              0.0000000000
      3599        33  POPC      O13            40.9973922568        6.6887571076       58.6620249590  MEMB      27              0.0000000000
      3600        33  POPC      O14            41.8753031197        6.8109281746       61.0452929193  MEMB      27              0.0000000000
      3601        33  POPC      O12            40.0288969018        8.2862421785       60.3276420696  MEMB      27              0.0000000000
      3602        33  POPC      O11            42.3454501780        8.6362802963       59.4835936998  MEMB      27              0.0000000000
      3603        33  POPC      C1             42.0502404918        9.9937984453       59.2065937037  MEMB      27              0.0000000000
      3604        33  POPC      HA             42.9894287958       10.5843307753       59.3206118580  MEMB      27              0.0000000000
      3605        33  POPC      HB             41.3095598717       10.4209133545       59.9099626402  MEMB      27              0.0000000000
      3606        33  POPC      C2             41.4898651585       10.2151082797       57.7857560312  MEMB      27              0.0000000000
      3607        33  POPC      HS             41.5158409279       11.3202990441       57.6159158106  MEMB      27              0.0000000000
      3608        33  POPC      O21            40.1761548813        9.6574786516       57.7005261849  MEMB      27              0.0000000000
      3609        33  POPC      C21            39.1933259650       10.4774712131       57.4599857594  MEMB      27              0.0000000000
      3610        33  POPC      O22            39.2303317754       11.6944714424       57.5415907126  MEMB      27              0.0000000000
      3611        33  POPC      C22            37.9727080175        9.6461502107       57.0381181656  MEMB      27              0.0000000000
      3612        33  POPC      H2R            37.2473593548        9.6423982325       57.8730253651  MEMB      27              0.0000000000
      3613        33  POPC      H2S            38.3321558565        8.6026962132       56.8893915657  MEMB      27              0.0000000000
      3614        33  POPC      C3             42.3295156890        9.5549160675       56.6713063277  MEMB      27              0.0000000000
      3615        33  POPC      HX             41.9393540065        8.5240728192       56.4898542856  MEMB      27              0.0000000000
      3616        33  POPC      HY             43.3704503734        9.4679495698       57.0328035822  MEMB      27              0.0000000000
      3617        33  POPC      O31            42.2535965968       10.4092412883       55.5169251946  MEMB      27              0.0000000000
      3618        33  POPC      C31            42.1555793668        9.8934033298       54.3126181234  MEMB      27              0.0000000000
      3619        33  POPC      O32            42.3988345344        8.7544005367       53.9668755259  MEMB      27              0.0000000000
      3620        33  POPC      C32            41.6888537486       11.0054865491       53.3647229041  MEMB      27              0.0000000000
      3621        33  POPC      H2X            41.8527153407       10.6508369713       52.3276562400  MEMB      27              0.0000000000
      3622        33  POPC      H2Y            42.3039446885       11.9097209487       53.5480577964  MEMB      27              0.0000000000
      3623        33  POPC      C23            37.2847653519       10.1086242889       55.7220436542  MEMB      27              0.0000000000
      3624        33  POPC      H3R            38.0023652598       10.6406827803       55.0636807154  MEMB      27              0.0000000000
      3625        33  POPC      H3S            36.4834913891       10.8306038104       55.9729744086  MEMB      27              0.0000000000
      3626        33  POPC      C24            36.7234768543        8.9034464264       54.9467442453  MEMB      27              0.0000000000
      3627        33  POPC      H4R            35.8105950041        8.5396609221       55.4691606665  MEMB      27              0.0000000000
      3628        33  POPC      H4S            37.4748324117        8.0856830998       55.0065349032  MEMB      27              0.0000000000
      3629        33  POPC      C25            36.4068947758        9.1202081371       53.4534868359  MEMB      27              0.0000000000
      3630        33  POPC      H5R            36.1681068334       10.1836567246       53.2410545625  MEMB      27              0.0000000000
      3631        33  POPC      H5S            35.4990656478        8.5179197755       53.2072846352  MEMB      27              0.0000000000
      3632        33  POPC      C26            37.5377219960        8.6260680486       52.5400595176  MEMB      27              0.0000000000
      3633        33  POPC      H6R            37.8764340583        7.6282043815       52.8775161753  MEMB      27              0.0000000000
      3634        33  POPC      H6S            38.4092129524        9.2799744825       52.6656895061  MEMB      27              0.0000000000
      3635        33  POPC      C27            37.1643085439        8.5497643340       51.0504589512  MEMB      27              0.0000000000
      3636        33  POPC      H7R            37.0250457191        9.5895950643       50.6875985412  MEMB      27              0.0000000000
      3637        33  POPC      H7S            36.1815460983        8.0596947580       50.9214343579  MEMB      27              0.0000000000
      3638        33  POPC      C28            38.2200468246        7.8301920626       50.1681304709  MEMB      27              0.0000000000
      3639        33  POPC      H8R            39.1640237647        8.4098197573       50.2557532100  MEMB      27              0.0000000000
      3640        33  POPC      H8S            37.8849264718        7.9349972019       49.1118091118  MEMB      27              0.0000000000
      3641        33  POPC      C29            38.4708749911        6.3645522991       50.4417473856  MEMB      27              0.0000000000
      3642        33  POPC      H91            37.6646282396        5.6898689306       50.1172879643  MEMB      27              0.0000000000
      3643        33  POPC      C210           39.5631298698        5.8100045221       50.9969093718  MEMB      27              0.0000000000
      3644        33  POPC      H101           39.6082069422        4.7157383630       51.1116231263  MEMB      27              0.0000000000
      3645        33  POPC      C211           40.7855175023        6.5489468100       51.4662470326  MEMB      27              0.0000000000
      3646        33  POPC      H11R           41.3695856401        5.9431130099       52.1966627369  MEMB      27              0.0000000000
      3647        33  POPC      H11S           40.5226247866        7.5078072639       51.9712002137  MEMB      27              0.0000000000
      3648        33  POPC      C212           41.6611927651        6.8597245375       50.2486426091  MEMB      27              0.0000000000
      3649        33  POPC      H12R           41.1063499624        7.5358669595       49.5568767051  MEMB      27              0.0000000000
      3650        33  POPC      H12S           41.8913349521        5.9275122670       49.6831465919  MEMB      27              0.0000000000
      3651        33  POPC      C213           42.9784779942        7.5302016648       50.6388568003  MEMB      27              0.0000000000
      3652        33  POPC      H13R           43.6184090221        6.7792727618       51.1536051196  MEMB      27              0.0000000000
      3653        33  POPC      H13S           42.7829425503        8.3583710294       51.3561853420  MEMB      27              0.0000000000
      3654        33  POPC      C214           43.7040145381        8.0801617715       49.4084192085  MEMB      27              0.0000000000
      3655        33  POPC      H14R           43.5504444786        7.3357613931       48.5989353038  MEMB      27              0.0000000000
      3656        33  POPC      H14S           44.8007682070        8.1273716476       49.5768787035  MEMB      27              0.0000000000
      3657        33  POPC      C215           43.1927584291        9.4765116116       49.0173449517  MEMB      27              0.0000000000
      3658        33  POPC      H15R           43.6658696110       10.2628670668       49.6391410889  MEMB      27              0.0000000000
      3659        33  POPC      H15S           42.0954302992        9.5302457551       49.2072204891  MEMB      27              0.0000000000
      3660        33  POPC      C216           43.4248128628        9.7988525546       47.5450090901  MEMB      27              0.0000000000
      3661        33  POPC      H16R           44.5123637571        9.8960377987       47.3352667821  MEMB      27              0.0000000000
      3662        33  POPC      H16S           42.9445546796       10.7813945021       47.3265534267  MEMB      27              0.0000000000
      3663        33  POPC      C217           42.8130719838        8.7281896312       46.6414848852  MEMB      27              0.0000000000
      3664        33  POPC      H17R           42.0853798202        8.1200565851       47.2281464854  MEMB      27              0.0000000000
      3665        33  POPC      H17S           43.6046511593        8.0349188642       46.2782589986  MEMB      27              0.0000000000
      3666        33  POPC      C218           42.0646921599        9.3260114736       45.4724552771  MEMB      27              0.0000000000
      3667        33  POPC      H18R           41.6458097573        8.5502543507       44.8361767610  MEMB      27              0.0000000000
      3668        33  POPC      H18S           42.7410084669        9.8619306217       44.8081357825  MEMB      27              0.0000000000
      3669        33  POPC      H18T           41.2501387831        9.9993764764       45.8109354430  MEMB      27              0.0000000000
      3670        33  POPC      C33            40.1997120564       11.3213017488       53.6158384558  MEMB      27              0.0000000000
      3671        33  POPC      H3X            40.1005616930       11.7877787250       54.6239147190  MEMB      27              0.0000000000
      3672        33  POPC      H3Y            39.6402204445       10.3707560266       53.6675730569  MEMB      27              0.0000000000
      3673        33  POPC      C34            39.5199798179       12.2531866082       52.5939746796  MEMB      27              0.0000000000
      3674        33  POPC      H4X            40.1093324421       13.1896854221       52.4863177451  MEMB      27              0.0000000000
      3675        33  POPC      H4Y            38.5368422494       12.5436019452       53.0327216120  MEMB      27              0.0000000000
      3676        33  POPC      C35            39.2455136281       11.6468123902       51.2086200322  MEMB      27              0.0000000000
      3677        33  POPC      H5X            38.9698402199       10.5838666240       51.2929691892  MEMB      27              0.0000000000
      3678        33  POPC      H5Y            40.1765360436       11.6437402762       50.6063579981  MEMB      27              0.0000000000
      3679        33  POPC      C36            38.1152589196       12.3808954333       50.4653989347  MEMB      27              0.0000000000
      3680        33  POPC      H6X            38.2145900812       13.4696908403       50.6816623531  MEMB      27              0.0000000000
      3681        33  POPC      H6Y            37.1289164128       12.0617970474       50.8669765183  MEMB      27              0.0000000000
      3682        33  POPC      C37            38.1654461730       12.1967543586       48.9401200807  MEMB      27              0.0000000000
      3683        33  POPC      H7X            39.1808717434       12.5115531589       48.6080248984  MEMB      27              0.0000000000
      3684        33  POPC      H7Y            37.4196047319       12.8644222908       48.4526973212  MEMB      27              0.0000000000
      3685        33  POPC      C38            37.9761634206       10.7643655017       48.4256594802  MEMB      27              0.0000000000
      3686        33  POPC      H8X            36.9093005397       10.4629465296       48.5278018128  MEMB      27              0.0000000000
      3687        33  POPC      H8Y            38.6060879470       10.0874673886       49.0347594060  MEMB      27              0.0000000000
      3688        33  POPC      C39            38.4418226846       10.6440262012       46.9693327751  MEMB      27              0.0000000000
      3689        33  POPC      H9X            39.5402049778       10.7939918568       46.9108295612  MEMB      27              0.0000000000
      3690        33  POPC      H9Y            37.9746053700       11.5004242642       46.4336695845  MEMB      27              0.0000000000
      3691        33  POPC      C310           38.0229000791        9.3562120943       46.2387280045  MEMB      27              0.0000000000
      3692        33  POPC      H10X           37.9619619743        9.6326959029       45.1592785804  MEMB      27              0.0000000000
      3693        33  POPC      H10Y           37.0012497871        9.0602437334       46.5384875629  MEMB      27              0.0000000000
      3694        33  POPC      C311           38.9899911057        8.1573403113       46.3014144356  MEMB      27              0.0000000000
      3695        33  POPC      H11X           38.5698477239        7.3412510626       46.9255243250  MEMB      27              0.0000000000
      3696        33  POPC      H11Y           39.9303406376        8.4807743297       46.7918918578  MEMB      27              0.0000000000
      3697        33  POPC      C312           39.2831496995        7.6512819000       44.8745147895  MEMB      27              0.0000000000
      3698        33  POPC      H12X           39.6501743183        8.5320081999       44.3020562046  MEMB      27              0.0000000000
      3699        33  POPC      H12Y           38.3528731125        7.3306790052       44.3697199888  MEMB      27              0.0000000000
      3700        33  POPC      C313           40.3106117195        6.5178426163       44.7297024170  MEMB      27              0.0000000000
      3701        33  POPC      H13X           39.8219961826        5.5438620195       44.8991921854  MEMB      27              0.0000000000
      3702        33  POPC      H13Y           41.0967605385        6.6059597865       45.5135782535  MEMB      27              0.0000000000
      3703        33  POPC      C314           41.0009023459        6.5186190024       43.3483254114  MEMB      27              0.0000000000
      3704        33  POPC      H14X           41.5048259071        5.5457474975       43.2045255708  MEMB      27              0.0000000000
      3705        33  POPC      H14Y           41.8132207671        7.2790848700       43.3351120353  MEMB      27              0.0000000000
      3706        33  POPC      C315           40.1054100500        6.8254804106       42.1388489438  MEMB      27              0.0000000000
      3707        33  POPC      H15X           39.5573763281        7.7798717891       42.3078893159  MEMB      27              0.0000000000
      3708        33  POPC      H15Y           39.3480097382        6.0229218946       42.0085077565  MEMB      27              0.0000000000
      3709        33  POPC      C316           40.9372375670        7.0017430359       40.8657596300  MEMB      27              0.0000000000
      3710        33  POPC      H16X           40.3500920788        7.5062393533       40.0691061105  MEMB      27              0.0000000000
      3711        33  POPC      H16Y           41.3092134127        6.0286429111       40.4863494996  MEMB      27              0.0000000000
      3712        33  POPC      H16Z           41.8248971802        7.6319410983       41.0940213844  MEMB      27              0.0000000000
      3713        34  POPC      N               7.6541957991       39.0018222935       61.7996718132  MEMB      28              0.0000000000
      3714        34  POPC      C12             8.7297310702       38.6094615774       62.8011031720  MEMB      28              0.0000000000
      3715        34  POPC      H12A            8.2927961055       38.6009846223       63.7922937477  MEMB      28              0.0000000000
      3716        34  POPC      H12B            9.5080802733       39.3626673721       62.7660388903  MEMB      28              0.0000000000
      3717        34  POPC      C13             6.6725779086       37.8684172147       61.6263013954  MEMB      28              0.0000000000
      3718        34  POPC      H13A            7.2158870389       36.9340172123       61.5207819562  MEMB      28              0.0000000000
      3719        34  POPC      H13B            5.9710471669       37.7810227266       62.4526572885  MEMB      28              0.0000000000
      3720        34  POPC      H13C            6.0812194284       37.9998381949       60.7236094028  MEMB      28              0.0000000000
      3721        34  POPC      C14             6.8969606449       40.2154581192       62.2272357977  MEMB      28              0.0000000000
      3722        34  POPC      H14A            7.5256579930       41.0831521850       62.3892545356  MEMB      28              0.0000000000
      3723        34  POPC      H14B            6.1312692104       40.4407205181       61.4929925006  MEMB      28              0.0000000000
      3724        34  POPC      H14C            6.3705424472       40.0405391799       63.1626096429  MEMB      28              0.0000000000
      3725        34  POPC      C15             8.3282112995       39.2451023547       60.4801629968  MEMB      28              0.0000000000
      3726        34  POPC      H15A            8.9930140204       40.1009313372       60.5062980228  MEMB      28              0.0000000000
      3727        34  POPC      H15B            7.6316670911       39.3554538655       59.6633860200  MEMB      28              0.0000000000
      3728        34  POPC      H15C            8.9551535611       38.3746523643       60.2588863410  MEMB      28              0.0000000000
      3729        34  POPC      C11             9.4676406496       37.2591558285       62.5753677601  MEMB      28              0.0000000000
      3730        34  POPC      H11A            8.7340803388       36.4236598819       62.5819066323  MEMB      28              0.0000000000
      3731        34  POPC      H11B           10.1417540601       37.0899769248       63.4526761080  MEMB      28              0.0000000000
      3732        34  POPC      P              11.7372822089       36.9947060580       61.2727170060  MEMB      28              0.0000000000
      3733        34  POPC      O13            11.9743322619       35.6274243079       61.7888984224  MEMB      28              0.0000000000
      3734        34  POPC      O14            12.3912518398       38.1412442050       61.9476084061  MEMB      28              0.0000000000
      3735        34  POPC      O12            10.1717423345       37.2560632053       61.3286565418  MEMB      28              0.0000000000
      3736        34  POPC      O11            12.0287145271       37.0417308083       59.7193567371  MEMB      28              0.0000000000
      3737        34  POPC      C1             11.5473133077       38.1872781595       59.0050313932  MEMB      28              0.0000000000
      3738        34  POPC      HA             11.7577439862       39.1412854791       59.5515173893  MEMB      28              0.0000000000
      3739        34  POPC      HB             10.4501778520       38.0990694610       58.8631051447  MEMB      28              0.0000000000
      3740        34  POPC      C2             12.2449567072       38.3072136297       57.6248022318  MEMB      28              0.0000000000
      3741        34  POPC      HS             11.8121852689       39.1784729395       57.0820861960  MEMB      28              0.0000000000
      3742        34  POPC      O21            12.0681839691       37.1079017208       56.8462399005  MEMB      28              0.0000000000
      3743        34  POPC      C21            10.8228040008       36.7932558980       56.5389035217  MEMB      28              0.0000000000
      3744        34  POPC      O22             9.8615224932       37.5402022591       56.5393911256  MEMB      28              0.0000000000
      3745        34  POPC      C22            10.7664396262       35.3054775274       56.2162346563  MEMB      28              0.0000000000
      3746        34  POPC      H2R            10.4474328094       34.8040602344       57.1561636778  MEMB      28              0.0000000000
      3747        34  POPC      H2S            11.7856898680       34.9662242351       55.9648226522  MEMB      28              0.0000000000
      3748        34  POPC      C3             13.7651496345       38.5930212717       57.8267458759  MEMB      28              0.0000000000
      3749        34  POPC      HX             14.1591317407       37.8657431342       58.5723020935  MEMB      28              0.0000000000
      3750        34  POPC      HY             13.8977253142       39.6027950229       58.2833161480  MEMB      28              0.0000000000
      3751        34  POPC      O31            14.5137138480       38.4362407985       56.6034988082  MEMB      28              0.0000000000
      3752        34  POPC      C31            14.4105418246       39.4458349621       55.7638225876  MEMB      28              0.0000000000
      3753        34  POPC      O32            13.8165843088       40.4877179192       55.9507581395  MEMB      28              0.0000000000
      3754        34  POPC      C32            15.1621224426       39.0698279023       54.4897162260  MEMB      28              0.0000000000
      3755        34  POPC      H2X            14.6758853218       38.1805194468       54.0449685145  MEMB      28              0.0000000000
      3756        34  POPC      H2Y            16.1903328861       38.7802506631       54.8042947799  MEMB      28              0.0000000000
      3757        34  POPC      C23             9.8010598743       34.8901831944       55.0807541871  MEMB      28              0.0000000000
      3758        34  POPC      H3R             8.8046060899       35.3672584833       55.1936018425  MEMB      28              0.0000000000
      3759        34  POPC      H3S             9.6559315148       33.7905036122       55.1986739963  MEMB      28              0.0000000000
      3760        34  POPC      C24            10.3736029188       35.1338313853       53.6773792907  MEMB      28              0.0000000000
      3761        34  POPC      H4R            11.4199438235       34.7721977999       53.6566755162  MEMB      28              0.0000000000
      3762        34  POPC      H4S            10.3897228109       36.2233049532       53.4604153802  MEMB      28              0.0000000000
      3763        34  POPC      C25             9.6101436074       34.3897490033       52.5725287758  MEMB      28              0.0000000000
      3764        34  POPC      H5R             8.5407949852       34.6927537721       52.6000072692  MEMB      28              0.0000000000
      3765        34  POPC      H5S             9.6588919448       33.2962724594       52.7735747204  MEMB      28              0.0000000000
      3766        34  POPC      C26            10.1692755322       34.6351623225       51.1637175164  MEMB      28              0.0000000000
      3767        34  POPC      H6R            11.2360893860       34.3318955517       51.1214974835  MEMB      28              0.0000000000
      3768        34  POPC      H6S            10.1294275488       35.7204194344       50.9271771454  MEMB      28              0.0000000000
      3769        34  POPC      C27             9.3886585837       33.8571320288       50.0924397867  MEMB      28              0.0000000000
      3770        34  POPC      H7R             8.3355699593       34.2181431214       50.1064212223  MEMB      28              0.0000000000
      3771        34  POPC      H7S             9.3709789948       32.7749443747       50.3537065295  MEMB      28              0.0000000000
      3772        34  POPC      C28             9.9496571370       34.0420101709       48.6731884698  MEMB      28              0.0000000000
      3773        34  POPC      H8R            10.0742056172       35.1308323188       48.4834703529  MEMB      28              0.0000000000
      3774        34  POPC      H8S             9.2016751148       33.6671233351       47.9385139794  MEMB      28              0.0000000000
      3775        34  POPC      C29            11.2443524660       33.2947566191       48.5014352914  MEMB      28              0.0000000000
      3776        34  POPC      H91            11.3241092794       32.3444270757       49.0519839475  MEMB      28              0.0000000000
      3777        34  POPC      C210           12.2791498396       33.6981299166       47.7535411744  MEMB      28              0.0000000000
      3778        34  POPC      H101           13.1450915289       33.0351711526       47.6574725410  MEMB      28              0.0000000000
      3779        34  POPC      C211           12.3578219355       34.9565933165       46.9406512347  MEMB      28              0.0000000000
      3780        34  POPC      H11R           11.3302081489       35.2911841220       46.6916275389  MEMB      28              0.0000000000
      3781        34  POPC      H11S           12.8551456336       34.7213385500       45.9754952529  MEMB      28              0.0000000000
      3782        34  POPC      C212           13.0708842090       36.1583663116       47.5963715630  MEMB      28              0.0000000000
      3783        34  POPC      H12R           14.1468649578       35.9422871521       47.7609580453  MEMB      28              0.0000000000
      3784        34  POPC      H12S           12.6064394699       36.3499091006       48.5912604665  MEMB      28              0.0000000000
      3785        34  POPC      C213           12.9295542659       37.4338357280       46.7469470045  MEMB      28              0.0000000000
      3786        34  POPC      H13R           13.1994583549       38.3343029801       47.3357800589  MEMB      28              0.0000000000
      3787        34  POPC      H13S           11.8559988996       37.5459792221       46.4850674962  MEMB      28              0.0000000000
      3788        34  POPC      C214           13.7459516744       37.4043484065       45.4468475261  MEMB      28              0.0000000000
      3789        34  POPC      H14R           13.5857294101       36.4178792730       44.9583043770  MEMB      28              0.0000000000
      3790        34  POPC      H14S           14.8345743279       37.4819647907       45.6500160991  MEMB      28              0.0000000000
      3791        34  POPC      C215           13.3043278715       38.4865718017       44.4521102771  MEMB      28              0.0000000000
      3792        34  POPC      H15R           13.8001237068       39.4554402874       44.6764042220  MEMB      28              0.0000000000
      3793        34  POPC      H15S           12.2096379165       38.6390324316       44.5751122045  MEMB      28              0.0000000000
      3794        34  POPC      C216           13.5745876663       38.0616341681       43.0021535560  MEMB      28              0.0000000000
      3795        34  POPC      H16R           13.3324257228       36.9798301259       42.8893521732  MEMB      28              0.0000000000
      3796        34  POPC      H16S           14.6582311207       38.1931688659       42.8105233738  MEMB      28              0.0000000000
      3797        34  POPC      C217           12.7474044857       38.8262395059       41.9593866698  MEMB      28              0.0000000000
      3798        34  POPC      H17R           13.3451644955       39.6781330499       41.5663276408  MEMB      28              0.0000000000
      3799        34  POPC      H17S           11.8750858916       39.2614351476       42.4729972857  MEMB      28              0.0000000000
      3800        34  POPC      C218           12.2017640307       37.9618038829       40.8145400313  MEMB      28              0.0000000000
      3801        34  POPC      H18R           13.0228220582       37.4332069501       40.2865087535  MEMB      28              0.0000000000
      3802        34  POPC      H18S           11.6558465127       38.5926873309       40.0795156619  MEMB      28              0.0000000000
      3803        34  POPC      H18T           11.4878614933       37.2057975372       41.2045365067  MEMB      28              0.0000000000
      3804        34  POPC      C33            15.2847534947       40.2330039187       53.4791153273  MEMB      28              0.0000000000
      3805        34  POPC      H3X            16.1061892597       39.9747287277       52.7764161367  MEMB      28              0.0000000000
      3806        34  POPC      H3Y            15.5748808464       41.1686318410       54.0079547478  MEMB      28              0.0000000000
      3807        34  POPC      C34            14.0451218611       40.5485188572       52.6322077719  MEMB      28              0.0000000000
      3808        34  POPC      H4X            14.3698995550       41.2377879477       51.8163900463  MEMB      28              0.0000000000
      3809        34  POPC      H4Y            13.3030369458       41.0991092829       53.2556774289  MEMB      28              0.0000000000
      3810        34  POPC      C35            13.3466810481       39.3394570049       51.9997334579  MEMB      28              0.0000000000
      3811        34  POPC      H5X            12.7505192667       38.8233150071       52.7868271691  MEMB      28              0.0000000000
      3812        34  POPC      H5Y            14.0848342053       38.6093754972       51.6090118150  MEMB      28              0.0000000000
      3813        34  POPC      C36            12.4282598910       39.7913588817       50.8585437295  MEMB      28              0.0000000000
      3814        34  POPC      H6X            12.9731836883       39.7554785685       49.8896080446  MEMB      28              0.0000000000
      3815        34  POPC      H6Y            12.1616920446       40.8587761881       51.0454066549  MEMB      28              0.0000000000
      3816        34  POPC      C37            11.1151368815       39.0072464777       50.7869711309  MEMB      28              0.0000000000
      3817        34  POPC      H7X            10.6610164092       39.0066593364       51.8052517385  MEMB      28              0.0000000000
      3818        34  POPC      H7Y            11.3016775213       37.9485291418       50.5016996524  MEMB      28              0.0000000000
      3819        34  POPC      C38            10.1123603100       39.6535996500       49.8189214151  MEMB      28              0.0000000000
      3820        34  POPC      H8X            10.2903038909       39.2847563893       48.7854050091  MEMB      28              0.0000000000
      3821        34  POPC      H8Y            10.2921464791       40.7535041060       49.8031677202  MEMB      28              0.0000000000
      3822        34  POPC      C39             8.6485229085       39.4385268460       50.2421227165  MEMB      28              0.0000000000
      3823        34  POPC      H9X             7.9925039340       40.0519028513       49.5912848778  MEMB      28              0.0000000000
      3824        34  POPC      H9Y             8.5199118006       39.8122219648       51.2835936769  MEMB      28              0.0000000000
      3825        34  POPC      C310            8.1506753907       37.9856284604       50.1725194536  MEMB      28              0.0000000000
      3826        34  POPC      H10X            7.0716673648       37.9690818660       50.4465507878  MEMB      28              0.0000000000
      3827        34  POPC      H10Y            8.6958020775       37.3833635348       50.9333735250  MEMB      28              0.0000000000
      3828        34  POPC      C311            8.3209456452       37.3258777165       48.7938850229  MEMB      28              0.0000000000
      3829        34  POPC      H11X            7.8674240557       36.3101472924       48.8196769949  MEMB      28              0.0000000000
      3830        34  POPC      H11Y            9.4099095935       37.2013753094       48.6066617092  MEMB      28              0.0000000000
      3831        34  POPC      C312            7.7025792726       38.1175737941       47.6301137129  MEMB      28              0.0000000000
      3832        34  POPC      H12X            8.2364500420       39.0888203634       47.5351160774  MEMB      28              0.0000000000
      3833        34  POPC      H12Y            6.6357540282       38.3326659212       47.8657152362  MEMB      28              0.0000000000
      3834        34  POPC      C313            7.7752823593       37.3841579340       46.2802654963  MEMB      28              0.0000000000
      3835        34  POPC      H13X            7.1833983532       37.9503763957       45.5251495683  MEMB      28              0.0000000000
      3836        34  POPC      H13Y            7.3076289107       36.3814846571       46.3988183787  MEMB      28              0.0000000000
      3837        34  POPC      C314            9.2065694245       37.2134665125       45.7462853358  MEMB      28              0.0000000000
      3838        34  POPC      H14X            9.8477370158       36.8005521880       46.5511461930  MEMB      28              0.0000000000
      3839        34  POPC      H14Y            9.6173339972       38.2089394327       45.4639832563  MEMB      28              0.0000000000
      3840        34  POPC      C315            9.2753751591       36.2650756012       44.5413937411  MEMB      28              0.0000000000
      3841        34  POPC      H15X            8.5941806135       36.6735029950       43.7653744750  MEMB      28              0.0000000000
      3842        34  POPC      H15Y            8.8956786545       35.2639265761       44.8471124384  MEMB      28              0.0000000000
      3843        34  POPC      C316           10.6655147717       36.1072494857       43.9185146338  MEMB      28              0.0000000000
      3844        34  POPC      H16X           11.0277124032       37.0910321221       43.5586178345  MEMB      28              0.0000000000
      3845        34  POPC      H16Y           10.6466721963       35.4070274566       43.0583104144  MEMB      28              0.0000000000
      3846        34  POPC      H16Z           11.3949618998       35.7145110603       44.6475375837  MEMB      28              0.0000000000
      3847        35  POPC      N              54.3656895449       38.4238566875       62.9361588980  MEMB      29              0.0000000000
      3848        35  POPC      C12            54.8382931203       36.9780040716       63.0322949618  MEMB      29              0.0000000000
      3849        35  POPC      H12A           54.4630386397       36.5363485032       63.9458119758  MEMB      29              0.0000000000
      3850        35  POPC      H12B           55.9315002933       36.9762345858       63.0941204060  MEMB      29              0.0000000000
      3851        35  POPC      C13            54.5667638255       39.1587291577       64.2322911055  MEMB      29              0.0000000000
      3852        35  POPC      H13A           54.3720239203       40.2263171368       64.1470028279  MEMB      29              0.0000000000
      3853        35  POPC      H13B           53.9058301651       38.7724916992       65.0059522517  MEMB      29              0.0000000000
      3854        35  POPC      H13C           55.5815372835       39.0506104008       64.6051645297  MEMB      29              0.0000000000
      3855        35  POPC      C14            55.1995155596       39.0637728368       61.8734871093  MEMB      29              0.0000000000
      3856        35  POPC      H14A           56.2482433235       39.0023094610       62.1497295467  MEMB      29              0.0000000000
      3857        35  POPC      H14B           55.1299557819       38.4611645935       60.9617065012  MEMB      29              0.0000000000
      3858        35  POPC      H14C           54.9512066250       40.0914812279       61.6825484996  MEMB      29              0.0000000000
      3859        35  POPC      C15            52.9224541864       38.4280846965       62.5433904926  MEMB      29              0.0000000000
      3860        35  POPC      H15A           52.3384841056       37.8280903782       63.2513194878  MEMB      29              0.0000000000
      3861        35  POPC      H15B           52.8253555569       37.9903717899       61.5546526156  MEMB      29              0.0000000000
      3862        35  POPC      H15C           52.4878068888       39.4125883074       62.5346659491  MEMB      29              0.0000000000
      3863        35  POPC      C11            54.4713873962       36.0234955284       61.8494198140  MEMB      29              0.0000000000
      3864        35  POPC      H11A           53.3687388504       36.0042193635       61.7230611879  MEMB      29              0.0000000000
      3865        35  POPC      H11B           54.7566246786       34.9876767771       62.1386438841  MEMB      29              0.0000000000
      3866        35  POPC      P              56.6269221266       36.1774276468       60.3912786276  MEMB      29              0.0000000000
      3867        35  POPC      O13            56.9461767691       34.8558267102       59.8247952228  MEMB      29              0.0000000000
      3868        35  POPC      O14            57.2807303429       36.5400349847       61.6699200181  MEMB      29              0.0000000000
      3869        35  POPC      O12            55.0569701779       36.3716482594       60.5919142082  MEMB      29              0.0000000000
      3870        35  POPC      O11            56.9725222777       37.3230461360       59.3762617123  MEMB      29              0.0000000000
      3871        35  POPC      C1             58.2132260642       37.3297753991       58.6692451475  MEMB      29              0.0000000000
      3872        35  POPC      HA             58.8867741991       36.4693949958       58.9076004587  MEMB      29              0.0000000000
      3873        35  POPC      HB             58.7500949732       38.2650828771       58.9359631542  MEMB      29              0.0000000000
      3874        35  POPC      C2             57.9345663150       37.3245272140       57.1508244783  MEMB      29              0.0000000000
      3875        35  POPC      HS             57.1358197775       38.0879228499       56.9815993059  MEMB      29              0.0000000000
      3876        35  POPC      O21            57.5753503452       35.9946275687       56.7341778638  MEMB      29              0.0000000000
      3877        35  POPC      C21            56.4243082724       35.8892488366       56.1013884187  MEMB      29              0.0000000000
      3878        35  POPC      O22            55.6553540428       36.8028822007       55.8569085894  MEMB      29              0.0000000000
      3879        35  POPC      C22            56.2186521667       34.4435125292       55.6232141847  MEMB      29              0.0000000000
      3880        35  POPC      H2R            55.3851054610       34.0353746351       56.2300006054  MEMB      29              0.0000000000
      3881        35  POPC      H2S            57.1320597599       33.8568141053       55.8512463528  MEMB      29              0.0000000000
      3882        35  POPC      C3             59.1719740506       37.7699839489       56.3429404021  MEMB      29              0.0000000000
      3883        35  POPC      HX             59.9578289025       36.9787687127       56.3701360205  MEMB      29              0.0000000000
      3884        35  POPC      HY             59.5931568607       38.6611834134       56.8541819842  MEMB      29              0.0000000000
      3885        35  POPC      O31            58.7726408709       38.1593286583       55.0125435908  MEMB      29              0.0000000000
      3886        35  POPC      C31            58.8138240431       37.1990231006       54.0984308490  MEMB      29              0.0000000000
      3887        35  POPC      O32            59.4052935239       36.1405776003       54.2146034069  MEMB      29              0.0000000000
      3888        35  POPC      C32            58.0311345674       37.5975324990       52.8310206423  MEMB      29              0.0000000000
      3889        35  POPC      H2X            57.5950881567       36.6619579294       52.4284196882  MEMB      29              0.0000000000
      3890        35  POPC      H2Y            58.7729622024       37.9806563624       52.1052798242  MEMB      29              0.0000000000
      3891        35  POPC      C23            55.8752659226       34.3143576467       54.1102344539  MEMB      29              0.0000000000
      3892        35  POPC      H3R            55.6059707246       35.2990018518       53.6661135826  MEMB      29              0.0000000000
      3893        35  POPC      H3S            54.9823116193       33.6571140893       54.0058046090  MEMB      29              0.0000000000
      3894        35  POPC      C24            57.0170004253       33.6829460679       53.2976958964  MEMB      29              0.0000000000
      3895        35  POPC      H4R            57.2779027344       32.6945012473       53.7372436856  MEMB      29              0.0000000000
      3896        35  POPC      H4S            57.9147273137       34.3309900722       53.3850402121  MEMB      29              0.0000000000
      3897        35  POPC      C25            56.6751341482       33.4807327500       51.8124967897  MEMB      29              0.0000000000
      3898        35  POPC      H5R            56.3232405153       34.4422766864       51.3804129122  MEMB      29              0.0000000000
      3899        35  POPC      H5S            55.8296786515       32.7601193738       51.7317074526  MEMB      29              0.0000000000
      3900        35  POPC      C26            57.8567381339       32.9419869562       50.9837686037  MEMB      29              0.0000000000
      3901        35  POPC      H6R            57.4906663285       32.7023635906       49.9593597626  MEMB      29              0.0000000000
      3902        35  POPC      H6S            58.2188511818       31.9947774979       51.4410160051  MEMB      29              0.0000000000
      3903        35  POPC      C27            59.0428857058       33.9119224627       50.8424522651  MEMB      29              0.0000000000
      3904        35  POPC      H7R            59.8568899015       33.3834513456       50.2929971090  MEMB      29              0.0000000000
      3905        35  POPC      H7S            59.4431963783       34.1788911243       51.8451653046  MEMB      29              0.0000000000
      3906        35  POPC      C28            58.6609249083       35.1815138551       50.0635050537  MEMB      29              0.0000000000
      3907        35  POPC      H8R            57.8516423085       35.7224849646       50.5920104745  MEMB      29              0.0000000000
      3908        35  POPC      H8S            58.2110032956       34.8468864492       49.1061084690  MEMB      29              0.0000000000
      3909        35  POPC      C29            59.8255647600       36.1108583109       49.8443397111  MEMB      29              0.0000000000
      3910        35  POPC      H91            60.0048461404       36.8357916050       50.6521774968  MEMB      29              0.0000000000
      3911        35  POPC      C210           60.6552210323       36.0983967225       48.7894517689  MEMB      29              0.0000000000
      3912        35  POPC      H101           61.4647207772       36.8437524271       48.7393981889  MEMB      29              0.0000000000
      3913        35  POPC      C211           60.5846381303       35.1505158964       47.6208329385  MEMB      29              0.0000000000
      3914        35  POPC      H11R           60.5361455618       34.0938056955       47.9696191422  MEMB      29              0.0000000000
      3915        35  POPC      H11S           61.5257674098       35.2440101525       47.0331139635  MEMB      29              0.0000000000
      3916        35  POPC      C212           59.4036954035       35.4110410090       46.6650908277  MEMB      29              0.0000000000
      3917        35  POPC      H12R           59.3881330604       36.4955965556       46.4052173274  MEMB      29              0.0000000000
      3918        35  POPC      H12S           58.4281913851       35.1697721065       47.1328781639  MEMB      29              0.0000000000
      3919        35  POPC      C213           59.5254304146       34.6241390943       45.3568355591  MEMB      29              0.0000000000
      3920        35  POPC      H13R           60.6027658954       34.5848836928       45.0984577732  MEMB      29              0.0000000000
      3921        35  POPC      H13S           58.9733665461       35.1625027494       44.5544813018  MEMB      29              0.0000000000
      3922        35  POPC      C214           59.0226589234       33.1835476019       45.3967169153  MEMB      29              0.0000000000
      3923        35  POPC      H14R           57.9122322374       33.1651701322       45.4650573842  MEMB      29              0.0000000000
      3924        35  POPC      H14S           59.4247310831       32.6900855709       46.3110870416  MEMB      29              0.0000000000
      3925        35  POPC      C215           59.4935812754       32.3848484835       44.1700819292  MEMB      29              0.0000000000
      3926        35  POPC      H15R           59.3548777995       31.3148376855       44.4541667328  MEMB      29              0.0000000000
      3927        35  POPC      H15S           60.5799258069       32.5347637686       43.9830231921  MEMB      29              0.0000000000
      3928        35  POPC      C216           58.6711789037       32.6319185978       42.8902676653  MEMB      29              0.0000000000
      3929        35  POPC      H16R           57.6239997082       32.8543153558       43.1671905481  MEMB      29              0.0000000000
      3930        35  POPC      H16S           58.6422352383       31.6974324399       42.2926938467  MEMB      29              0.0000000000
      3931        35  POPC      C217           59.1882618721       33.6950368884       41.9155714374  MEMB      29              0.0000000000
      3932        35  POPC      H17R           60.3006791207       33.6813479349       41.8985383328  MEMB      29              0.0000000000
      3933        35  POPC      H17S           58.8555424392       34.7016411159       42.2550395849  MEMB      29              0.0000000000
      3934        35  POPC      C218           58.6745528881       33.4342390046       40.4962577975  MEMB      29              0.0000000000
      3935        35  POPC      H18R           57.5736751903       33.3138202487       40.5200729908  MEMB      29              0.0000000000
      3936        35  POPC      H18S           59.1109356799       32.4955230713       40.0868384148  MEMB      29              0.0000000000
      3937        35  POPC      H18T           58.9227012424       34.2763207518       39.8152576400  MEMB      29              0.0000000000
      3938        35  POPC      C33            56.8940003343       38.6414250544       52.9936693361  MEMB      29              0.0000000000
      3939        35  POPC      H3X            57.1336351707       39.3428151930       53.8265607436  MEMB      29              0.0000000000
      3940        35  POPC      H3Y            55.9543303271       38.1205819124       53.2785549244  MEMB      29              0.0000000000
      3941        35  POPC      C34            56.6626784967       39.5291183123       51.7505841126  MEMB      29              0.0000000000
      3942        35  POPC      H4X            57.5664162164       40.1679245000       51.6166617690  MEMB      29              0.0000000000
      3943        35  POPC      H4Y            55.8103049672       40.2097677657       51.9771305783  MEMB      29              0.0000000000
      3944        35  POPC      C35            56.3825219669       38.8361196808       50.3978770204  MEMB      29              0.0000000000
      3945        35  POPC      H5X            57.2832244111       38.2719798865       50.0697917521  MEMB      29              0.0000000000
      3946        35  POPC      H5Y            56.2059849513       39.6423945629       49.6456016961  MEMB      29              0.0000000000
      3947        35  POPC      C36            55.1626490036       37.8977203198       50.3723919284  MEMB      29              0.0000000000
      3948        35  POPC      H6X            54.3576213778       38.3468179056       50.9993359144  MEMB      29              0.0000000000
      3949        35  POPC      H6Y            55.4424135808       36.9233672666       50.8295703714  MEMB      29              0.0000000000
      3950        35  POPC      C37            54.5861405319       37.6684074526       48.9589762796  MEMB      29              0.0000000000
      3951        35  POPC      H7X            54.2541399446       38.6543428170       48.5621879791  MEMB      29              0.0000000000
      3952        35  POPC      H7Y            53.6820670639       37.0231211096       49.0293476744  MEMB      29              0.0000000000
      3953        35  POPC      C38            55.5628228671       37.0375920400       47.9494951138  MEMB      29              0.0000000000
      3954        35  POPC      H8X            55.7587324612       35.9805355239       48.2307913034  MEMB      29              0.0000000000
      3955        35  POPC      H8Y            56.5343794166       37.5801356595       47.9923432866  MEMB      29              0.0000000000
      3956        35  POPC      C39            55.0468912782       37.1260547663       46.5011491380  MEMB      29              0.0000000000
      3957        35  POPC      H9X            54.9225655292       38.2100765615       46.2802570723  MEMB      29              0.0000000000
      3958        35  POPC      H9Y            54.0478090051       36.6468573535       46.4097473029  MEMB      29              0.0000000000
      3959        35  POPC      C310           55.9947198125       36.5144756598       45.4541722154  MEMB      29              0.0000000000
      3960        35  POPC      H10X           55.6441460972       35.4921476714       45.1872006581  MEMB      29              0.0000000000
      3961        35  POPC      H10Y           57.0053256538       36.4067127217       45.9055682707  MEMB      29              0.0000000000
      3962        35  POPC      C311           56.1583879931       37.3567829186       44.1750041764  MEMB      29              0.0000000000
      3963        35  POPC      H11X           56.7386774458       36.7643359284       43.4312437197  MEMB      29              0.0000000000
      3964        35  POPC      H11Y           56.7607365053       38.2591239753       44.4198623183  MEMB      29              0.0000000000
      3965        35  POPC      C312           54.8447672355       37.8188470340       43.5282062078  MEMB      29              0.0000000000
      3966        35  POPC      H12X           54.2811912498       38.4447498175       44.2513669965  MEMB      29              0.0000000000
      3967        35  POPC      H12Y           54.2050355269       36.9411835142       43.3044674497  MEMB      29              0.0000000000
      3968        35  POPC      C313           55.0909375276       38.6474817431       42.2562075884  MEMB      29              0.0000000000
      3969        35  POPC      H13X           55.9104413289       38.1763862937       41.6664948699  MEMB      29              0.0000000000
      3970        35  POPC      H13Y           55.4596901767       39.6491687889       42.5666502428  MEMB      29              0.0000000000
      3971        35  POPC      C314           53.8792246416       38.8195147352       41.3196931519  MEMB      29              0.0000000000
      3972        35  POPC      H14X           53.7849264242       37.9497453477       40.6455990543  MEMB      29              0.0000000000
      3973        35  POPC      H14Y           54.0929523702       39.6635049392       40.6455584220  MEMB      29              0.0000000000
      3974        35  POPC      C315           52.5020081881       38.9609272316       41.9807938862  MEMB      29              0.0000000000
      3975        35  POPC      H15X           52.3120923225       38.0067426127       42.5107094024  MEMB      29              0.0000000000
      3976        35  POPC      H15Y           51.7281135810       39.0571379913       41.1839916904  MEMB      29              0.0000000000
      3977        35  POPC      C316           52.3215981942       40.0731221126       42.9982700585  MEMB      29              0.0000000000
      3978        35  POPC      H16X           52.2291992841       41.0637246515       42.5198812298  MEMB      29              0.0000000000
      3979        35  POPC      H16Y           53.1827550413       40.1251535000       43.6920707074  MEMB      29              0.0000000000
      3980        35  POPC      H16Z           51.3888447561       39.8972008354       43.5795292772  MEMB      29              0.0000000000
      3981        36  POPC      N              13.9181142025       48.1848393467       63.2627048526  MEMB      30              0.0000000000
      3982        36  POPC      C12            14.0904823525       47.7210688007       61.8123189362  MEMB      30              0.0000000000
      3983        36  POPC      H12A           15.1440761259       47.5707788502       61.6220304177  MEMB      30              0.0000000000
      3984        36  POPC      H12B           13.7528379918       48.5098333805       61.1522321341  MEMB      30              0.0000000000
      3985        36  POPC      C13            12.5035592476       48.6459191112       63.4748567565  MEMB      30              0.0000000000
      3986        36  POPC      H13A           11.8285988532       47.8160166497       63.2663272575  MEMB      30              0.0000000000
      3987        36  POPC      H13B           12.3471159565       48.9538571568       64.5071306656  MEMB      30              0.0000000000
      3988        36  POPC      H13C           12.2231227838       49.4565107744       62.8235453129  MEMB      30              0.0000000000
      3989        36  POPC      C14            14.1467346524       47.0526758794       64.2097081230  MEMB      30              0.0000000000
      3990        36  POPC      H14A           13.4341750643       46.2623520820       63.9890476400  MEMB      30              0.0000000000
      3991        36  POPC      H14B           15.1504697722       46.6674467754       64.1615494567  MEMB      30              0.0000000000
      3992        36  POPC      H14C           13.9710276107       47.3910318660       65.2301751473  MEMB      30              0.0000000000
      3993        36  POPC      C15            14.8486844768       49.3001692267       63.6388934036  MEMB      30              0.0000000000
      3994        36  POPC      H15A           14.6474757187       50.1900805057       63.0633567609  MEMB      30              0.0000000000
      3995        36  POPC      H15B           15.8856410616       49.0179727031       63.5238231307  MEMB      30              0.0000000000
      3996        36  POPC      H15C           14.7209828738       49.5337725402       64.6968499430  MEMB      30              0.0000000000
      3997        36  POPC      C11            13.3582631472       46.4290845886       61.3138816076  MEMB      30              0.0000000000
      3998        36  POPC      H11A           13.7047245754       45.5473657856       61.8966620083  MEMB      30              0.0000000000
      3999        36  POPC      H11B           13.7084294999       46.2719223357       60.2602245956  MEMB      30              0.0000000000
      4000        36  POPC      P              11.0165238039       45.8906866784       60.2264676213  MEMB      30              0.0000000000
      4001        36  POPC      O13             9.7007285421       45.5626810597       60.8317002591  MEMB      30              0.0000000000
      4002        36  POPC      O14            11.7495671172       44.7781269204       59.5996158337  MEMB      30              0.0000000000
      4003        36  POPC      O12            11.9274257931       46.5205974447       61.3916723395  MEMB      30              0.0000000000
      4004        36  POPC      O11            10.8616301691       47.1161964088       59.2284164940  MEMB      30              0.0000000000
      4005        36  POPC      C1             10.6769909304       48.4366959814       59.7607650771  MEMB      30              0.0000000000
      4006        36  POPC      HA             11.3082823148       48.6339542143       60.6558881167  MEMB      30              0.0000000000
      4007        36  POPC      HB              9.6113936471       48.5533926570       60.0585412957  MEMB      30              0.0000000000
      4008        36  POPC      C2             11.0130154776       49.5628589405       58.7316974921  MEMB      30              0.0000000000
      4009        36  POPC      HS             10.4708871506       50.4777791155       59.0533760870  MEMB      30              0.0000000000
      4010        36  POPC      O21            10.6164907985       49.2011731271       57.4106551689  MEMB      30              0.0000000000
      4011        36  POPC      C21             9.3257867221       49.1137180535       57.2243905993  MEMB      30              0.0000000000
      4012        36  POPC      O22             8.4609668715       49.4968313400       57.9972452945  MEMB      30              0.0000000000
      4013        36  POPC      C22             9.0430895639       48.5908054172       55.8282526247  MEMB      30              0.0000000000
      4014        36  POPC      H2R             8.0149089016       48.9206394292       55.5900585764  MEMB      30              0.0000000000
      4015        36  POPC      H2S             9.0912238321       47.4838919700       55.8537350261  MEMB      30              0.0000000000
      4016        36  POPC      C3             12.5244016878       49.9337666707       58.6898739627  MEMB      30              0.0000000000
      4017        36  POPC      HX             12.7933031481       50.3645848304       59.6767494873  MEMB      30              0.0000000000
      4018        36  POPC      HY             12.6881450267       50.7274863521       57.9219129618  MEMB      30              0.0000000000
      4019        36  POPC      O31            13.3449417872       48.7766359119       58.4655754502  MEMB      30              0.0000000000
      4020        36  POPC      C31            13.3917758966       48.3745565754       57.1892828783  MEMB      30              0.0000000000
      4021        36  POPC      O32            13.2404370046       49.0954660816       56.2214752951  MEMB      30              0.0000000000
      4022        36  POPC      C32            13.7732874398       46.8925262547       57.1855031644  MEMB      30              0.0000000000
      4023        36  POPC      H2X            12.9262843237       46.3193118806       57.6196577474  MEMB      30              0.0000000000
      4024        36  POPC      H2Y            14.6441739891       46.7862331332       57.8672251814  MEMB      30              0.0000000000
      4025        36  POPC      C23             9.9905761396       49.1500467403       54.7508941701  MEMB      30              0.0000000000
      4026        36  POPC      H3R            11.0393395528       48.8594572888       54.9903503410  MEMB      30              0.0000000000
      4027        36  POPC      H3S             9.9494676470       50.2614682274       54.7352602907  MEMB      30              0.0000000000
      4028        36  POPC      C24             9.6472170119       48.6109501550       53.3638459106  MEMB      30              0.0000000000
      4029        36  POPC      H4R             8.6151742331       48.8964035517       53.0689148425  MEMB      30              0.0000000000
      4030        36  POPC      H4S             9.6961897301       47.4981835372       53.4054976439  MEMB      30              0.0000000000
      4031        36  POPC      C25            10.6362997742       49.1065997461       52.3091263715  MEMB      30              0.0000000000
      4032        36  POPC      H5R            10.6437053975       48.3741670630       51.4724940006  MEMB      30              0.0000000000
      4033        36  POPC      H5S            11.6600381503       49.1286429386       52.7485236198  MEMB      30              0.0000000000
      4034        36  POPC      C26            10.3007231790       50.4945747593       51.7435647718  MEMB      30              0.0000000000
      4035        36  POPC      H6R            10.0544998607       51.1834315828       52.5853649752  MEMB      30              0.0000000000
      4036        36  POPC      H6S             9.3997724347       50.4121017797       51.0988828751  MEMB      30              0.0000000000
      4037        36  POPC      C27            11.4741452112       51.0994070115       50.9509222044  MEMB      30              0.0000000000
      4038        36  POPC      H7R            12.3009813998       51.2466229944       51.6848349884  MEMB      30              0.0000000000
      4039        36  POPC      H7S            11.1878637232       52.1071921257       50.5784702794  MEMB      30              0.0000000000
      4040        36  POPC      C28            11.9567210109       50.2200503005       49.7784484448  MEMB      30              0.0000000000
      4041        36  POPC      H8R            11.2797912389       50.3186592905       48.9103625218  MEMB      30              0.0000000000
      4042        36  POPC      H8S            11.9055485209       49.1518466135       50.0637029043  MEMB      30              0.0000000000
      4043        36  POPC      C29            13.3452818656       50.5709820163       49.3375065740  MEMB      30              0.0000000000
      4044        36  POPC      H91            13.4668995648       51.5824228360       48.9192527639  MEMB      30              0.0000000000
      4045        36  POPC      C210           14.4076680287       49.7544592789       49.4015934616  MEMB      30              0.0000000000
      4046        36  POPC      H101           15.3515681736       50.1334780168       49.0057745295  MEMB      30              0.0000000000
      4047        36  POPC      C211           14.4611161217       48.3335047491       49.9160618291  MEMB      30              0.0000000000
      4048        36  POPC      H11R           13.7720269713       48.2202323650       50.7855734958  MEMB      30              0.0000000000
      4049        36  POPC      H11S           15.4768020055       48.0954596106       50.2993155924  MEMB      30              0.0000000000
      4050        36  POPC      C212           14.0726918591       47.2546483901       48.8795010103  MEMB      30              0.0000000000
      4051        36  POPC      H12R           13.0986897576       47.5255730063       48.4234544621  MEMB      30              0.0000000000
      4052        36  POPC      H12S           13.9293235349       46.2938439625       49.4244012003  MEMB      30              0.0000000000
      4053        36  POPC      C213           15.0661640542       47.0106816620       47.7322419252  MEMB      30              0.0000000000
      4054        36  POPC      H13R           14.8546678642       46.0015936999       47.3062537681  MEMB      30              0.0000000000
      4055        36  POPC      H13S           16.1089507559       47.0051028543       48.1133197519  MEMB      30              0.0000000000
      4056        36  POPC      C214           14.8941019249       48.0329647470       46.6009483898  MEMB      30              0.0000000000
      4057        36  POPC      H14R           15.1888304244       49.0376391464       46.9643712221  MEMB      30              0.0000000000
      4058        36  POPC      H14S           13.8188951733       48.1066169160       46.3439637056  MEMB      30              0.0000000000
      4059        36  POPC      C215           15.6931042775       47.7255756832       45.3312739713  MEMB      30              0.0000000000
      4060        36  POPC      H15R           15.2269381165       46.8816362084       44.7799924009  MEMB      30              0.0000000000
      4061        36  POPC      H15S           16.7199136178       47.4103237052       45.6284710777  MEMB      30              0.0000000000
      4062        36  POPC      C216           15.8124536832       48.9636964107       44.4299101119  MEMB      30              0.0000000000
      4063        36  POPC      H16R           16.4717157392       48.7398853378       43.5620938218  MEMB      30              0.0000000000
      4064        36  POPC      H16S           16.3030895230       49.7601510401       45.0282944997  MEMB      30              0.0000000000
      4065        36  POPC      C217           14.4886619931       49.5555718993       43.9297431803  MEMB      30              0.0000000000
      4066        36  POPC      H17R           13.7416385434       49.6013905062       44.7533310413  MEMB      30              0.0000000000
      4067        36  POPC      H17S           14.0715971246       48.8850511012       43.1467799854  MEMB      30              0.0000000000
      4068        36  POPC      C218           14.6843831045       50.9743529530       43.3849580216  MEMB      30              0.0000000000
      4069        36  POPC      H18R           15.5127253447       50.9976827112       42.6448557786  MEMB      30              0.0000000000
      4070        36  POPC      H18S           14.9535848135       51.6704043730       44.2085753559  MEMB      30              0.0000000000
      4071        36  POPC      H18T           13.7589520212       51.3449007330       42.8940847819  MEMB      30              0.0000000000
      4072        36  POPC      C33            14.1533719103       46.3114528699       55.8041723128  MEMB      30              0.0000000000
      4073        36  POPC      H3X            14.7743204282       45.4052246911       56.0032877034  MEMB      30              0.0000000000
      4074        36  POPC      H3Y            14.7798035952       47.0173925225       55.2213612657  MEMB      30              0.0000000000
      4075        36  POPC      C34            12.9592795619       45.8455491458       54.9582573969  MEMB      30              0.0000000000
      4076        36  POPC      H4X            12.4306616154       46.7262592979       54.5308834127  MEMB      30              0.0000000000
      4077        36  POPC      H4Y            12.2455907656       45.2980476318       55.6177662419  MEMB      30              0.0000000000
      4078        36  POPC      C35            13.4118017907       44.8852698442       53.8428205004  MEMB      30              0.0000000000
      4079        36  POPC      H5X            13.9448067672       44.0343357393       54.3305985639  MEMB      30              0.0000000000
      4080        36  POPC      H5Y            14.1369726762       45.3946521402       53.1718755059  MEMB      30              0.0000000000
      4081        36  POPC      C36            12.2626503793       44.3017185474       53.0066961555  MEMB      30              0.0000000000
      4082        36  POPC      H6X            11.4429731077       43.9795100058       53.6872330272  MEMB      30              0.0000000000
      4083        36  POPC      H6Y            12.6358650604       43.3934197083       52.4800429294  MEMB      30              0.0000000000
      4084        36  POPC      C37            11.7213205055       45.2763239538       51.9505578942  MEMB      30              0.0000000000
      4085        36  POPC      H7X            12.5551338073       45.6195894424       51.2987447293  MEMB      30              0.0000000000
      4086        36  POPC      H7Y            11.3169836674       46.1740083945       52.4674161616  MEMB      30              0.0000000000
      4087        36  POPC      C38            10.6218410016       44.6521259253       51.0825054559  MEMB      30              0.0000000000
      4088        36  POPC      H8X             9.8786745345       44.1646978534       51.7552674506  MEMB      30              0.0000000000
      4089        36  POPC      H8Y            11.0591472994       43.8571971265       50.4381465997  MEMB      30              0.0000000000
      4090        36  POPC      C39             9.8789402821       45.6734081334       50.2053469796  MEMB      30              0.0000000000
      4091        36  POPC      H9X             9.5205783313       46.5194376550       50.8314935615  MEMB      30              0.0000000000
      4092        36  POPC      H9Y             8.9827086055       45.1711853919       49.8008295600  MEMB      30              0.0000000000
      4093        36  POPC      C310           10.7098253987       46.2147299714       49.0316909749  MEMB      30              0.0000000000
      4094        36  POPC      H10X           11.2048973448       45.3684821355       48.5069475163  MEMB      30              0.0000000000
      4095        36  POPC      H10Y           11.4930373329       46.8606732857       49.4773519854  MEMB      30              0.0000000000
      4096        36  POPC      C311            9.8942911517       47.0339593992       48.0119850300  MEMB      30              0.0000000000
      4097        36  POPC      H11X            9.3118273954       47.8049735583       48.5653986841  MEMB      30              0.0000000000
      4098        36  POPC      H11Y            9.1752470947       46.3665535665       47.4971249858  MEMB      30              0.0000000000
      4099        36  POPC      C312           10.7179955606       47.7360224002       46.9162692691  MEMB      30              0.0000000000
      4100        36  POPC      H12X           11.4149440222       48.4570841128       47.3975833610  MEMB      30              0.0000000000
      4101        36  POPC      H12Y           10.0246237990       48.3287937634       46.2776337265  MEMB      30              0.0000000000
      4102        36  POPC      C313           11.5250500889       46.7916738876       46.0054196058  MEMB      30              0.0000000000
      4103        36  POPC      H13X           12.2429351739       46.2010629925       46.6166731907  MEMB      30              0.0000000000
      4104        36  POPC      H13Y           12.1155148762       47.4197171683       45.3006823262  MEMB      30              0.0000000000
      4105        36  POPC      C314           10.6655101723       45.8330714118       45.1730013300  MEMB      30              0.0000000000
      4106        36  POPC      H14X            9.9868437557       46.4252639670       44.5206296135  MEMB      30              0.0000000000
      4107        36  POPC      H14Y           10.0313582046       45.2281067429       45.8566745118  MEMB      30              0.0000000000
      4108        36  POPC      C315           11.4810296398       44.8597784829       44.3060778205  MEMB      30              0.0000000000
      4109        36  POPC      H15X           10.7570684064       44.2508691493       43.7235488191  MEMB      30              0.0000000000
      4110        36  POPC      H15Y           12.0417799233       44.1705935798       44.9780005737  MEMB      30              0.0000000000
      4111        36  POPC      C316           12.4527207817       45.4937205171       43.3085466444  MEMB      30              0.0000000000
      4112        36  POPC      H16X           12.9248169164       44.7064018030       42.6799305560  MEMB      30              0.0000000000
      4113        36  POPC      H16Y           13.2577425906       46.0490014498       43.8317689006  MEMB      30              0.0000000000
      4114        36  POPC      H16Z           11.9102997589       46.1992421709       42.6450525596  MEMB      30              0.0000000000
      4115        37  POPS      N              47.0453415822        9.4805249024       62.1707610228  MEMB      31              0.0000000000
      4116        37  POPS      HN1            47.8721267044        8.9210310354       62.4988103070  MEMB      31              0.0000000000
      4117        37  POPS      HN2            46.2167299586        9.3502546915       62.7704013897  MEMB      31              0.0000000000
      4118        37  POPS      HN3            46.8117479400        9.1868509339       61.2014639664  MEMB      31              0.0000000000
      4119        37  POPS      C12            47.3747672075       10.9375989975       62.1165123459  MEMB      31              0.0000000000
      4120        37  POPS      H12A           47.6273115029       11.2597530921       63.1169785807  MEMB      31              0.0000000000
      4121        37  POPS      C13            46.1897213243       11.8313366022       61.6249342049  MEMB      31              0.0000000000
      4122        37  POPS      O13A           45.0644023628       11.3016122867       61.4044882893  MEMB      31              0.0000000000
      4123        37  POPS      O13B           46.3717941825       13.0727960395       61.5063777148  MEMB      31              0.0000000000
      4124        37  POPS      C11            48.6577926913       11.0965194973       61.2622247122  MEMB      31              0.0000000000
      4125        37  POPS      H11A           48.8278014828       12.1848206753       61.0873855050  MEMB      31              0.0000000000
      4126        37  POPS      H11B           48.5112084183       10.6257705189       60.2659769352  MEMB      31              0.0000000000
      4127        37  POPS      P              50.3972587420        9.1323376452       61.7874900818  MEMB      31              0.0000000000
      4128        37  POPS      O13            49.5645298322        8.1576741269       62.5179093723  MEMB      31              0.0000000000
      4129        37  POPS      O14            51.8498605558        9.1903399212       62.0546400155  MEMB      31              0.0000000000
      4130        37  POPS      O12            49.7877241631       10.5690193593       61.9627986009  MEMB      31              0.0000000000
      4131        37  POPS      O11            50.1707797042        8.8403572930       60.2653331934  MEMB      31              0.0000000000
      4132        37  POPS      C1             51.0624869698        9.5072235701       59.3854460052  MEMB      31              0.0000000000
      4133        37  POPS      HA             52.0865790412        9.0706812703       59.4796365993  MEMB      31              0.0000000000
      4134        37  POPS      HB             51.0953477400       10.6065158923       59.5853710717  MEMB      31              0.0000000000
      4135        37  POPS      C2             50.6189757530        9.2885049187       57.9428559008  MEMB      31              0.0000000000
      4136        37  POPS      HS             51.2955505424        9.8800378046       57.2797601801  MEMB      31              0.0000000000
      4137        37  POPS      O21            49.2568279238        9.6694397266       57.7762615491  MEMB      31              0.0000000000
      4138        37  POPS      C21            49.0362779467       10.9688257503       57.7211135423  MEMB      31              0.0000000000
      4139        37  POPS      O22            49.8598327460       11.8562517022       57.8631137642  MEMB      31              0.0000000000
      4140        37  POPS      C22            47.5853370243       11.1611779171       57.3482883195  MEMB      31              0.0000000000
      4141        37  POPS      H2R            47.4220151210       12.2262582623       57.0872438508  MEMB      31              0.0000000000
      4142        37  POPS      H2S            46.9664179868       10.9174432126       58.2356102293  MEMB      31              0.0000000000
      4143        37  POPS      C3             50.7348893756        7.7827674524       57.5995058989  MEMB      31              0.0000000000
      4144        37  POPS      HX             50.0193240973        7.2389038344       58.2580789305  MEMB      31              0.0000000000
      4145        37  POPS      HY             51.7559112319        7.4209690407       57.8704982191  MEMB      31              0.0000000000
      4146        37  POPS      O31            50.4134633764        7.5091859371       56.2172032530  MEMB      31              0.0000000000
      4147        37  POPS      C31            51.3854330577        7.9366904190       55.4049004408  MEMB      31              0.0000000000
      4148        37  POPS      O32            52.4181208139        8.4558253912       55.7816797587  MEMB      31              0.0000000000
      4149        37  POPS      C32            51.1314194774        7.5089437184       53.9604723974  MEMB      31              0.0000000000
      4150        37  POPS      H2X            50.0909593704        7.7577150970       53.6768571568  MEMB      31              0.0000000000
      4151        37  POPS      H2Y            51.2343023366        6.4055806075       53.9125855346  MEMB      31              0.0000000000
      4152        37  POPS      C23            47.2056173930       10.2566578459       56.1560349908  MEMB      31              0.0000000000
      4153        37  POPS      H3R            47.9044331751        9.4013938379       56.0058869083  MEMB      31              0.0000000000
      4154        37  POPS      H3S            47.2625763871       10.8629554285       55.2314089979  MEMB      31              0.0000000000
      4155        37  POPS      C24            45.8263194867        9.6318121943       56.3140678485  MEMB      31              0.0000000000
      4156        37  POPS      H4R            45.0654719848       10.4255965917       56.1417828345  MEMB      31              0.0000000000
      4157        37  POPS      H4S            45.7000114250        9.2545015665       57.3574003713  MEMB      31              0.0000000000
      4158        37  POPS      C25            45.5999952000        8.4458556311       55.3707397366  MEMB      31              0.0000000000
      4159        37  POPS      H5R            44.5128546376        8.2095502906       55.3475322233  MEMB      31              0.0000000000
      4160        37  POPS      H5S            46.1151053180        7.5535900890       55.7922553762  MEMB      31              0.0000000000
      4161        37  POPS      C26            46.0874726443        8.6620042460       53.9328437193  MEMB      31              0.0000000000
      4162        37  POPS      H6R            45.7092629278        7.7964229029       53.3415861612  MEMB      31              0.0000000000
      4163        37  POPS      H6S            47.1956927993        8.6274368676       53.8983041375  MEMB      31              0.0000000000
      4164        37  POPS      C27            45.5828136055        9.9701561495       53.3038717075  MEMB      31              0.0000000000
      4165        37  POPS      H7R            46.2701800647       10.8179415820       53.4969996401  MEMB      31              0.0000000000
      4166        37  POPS      H7S            44.6262232502       10.2239480450       53.8047832636  MEMB      31              0.0000000000
      4167        37  POPS      C28            45.2866665583        9.8460610256       51.8059190304  MEMB      31              0.0000000000
      4168        37  POPS      H8R            44.3480200602       10.4152047794       51.6191917121  MEMB      31              0.0000000000
      4169        37  POPS      H8S            45.0700608084        8.7810737764       51.5895372250  MEMB      31              0.0000000000
      4170        37  POPS      C29            46.3584278062       10.3734456243       50.8946696182  MEMB      31              0.0000000000
      4171        37  POPS      H91            46.1198734239       11.3488152429       50.4446566648  MEMB      31              0.0000000000
      4172        37  POPS      C210           47.5237655212        9.7884046621       50.5686015167  MEMB      31              0.0000000000
      4173        37  POPS      H101           48.2123049597       10.3272858728       49.9023892384  MEMB      31              0.0000000000
      4174        37  POPS      C211           48.0384227833        8.4556636308       51.0381372864  MEMB      31              0.0000000000
      4175        37  POPS      H11R           47.2496993186        7.6904427313       50.8871823328  MEMB      31              0.0000000000
      4176        37  POPS      H11S           48.2667907178        8.5032896763       52.1239536036  MEMB      31              0.0000000000
      4177        37  POPS      C212           49.3290549258        8.0044992970       50.3193762623  MEMB      31              0.0000000000
      4178        37  POPS      H12R           49.6370993273        7.0065851757       50.7066699737  MEMB      31              0.0000000000
      4179        37  POPS      H12S           50.1529922369        8.7146510740       50.5453928621  MEMB      31              0.0000000000
      4180        37  POPS      C213           49.1889952666        7.9231677835       48.7969765526  MEMB      31              0.0000000000
      4181        37  POPS      H13R           48.6113166265        8.7967858148       48.4177482892  MEMB      31              0.0000000000
      4182        37  POPS      H13S           48.6110465766        7.0126775323       48.5236942841  MEMB      31              0.0000000000
      4183        37  POPS      C214           50.5311022795        7.9430330565       48.0519250452  MEMB      31              0.0000000000
      4184        37  POPS      H14R           51.1032155571        7.0165077837       48.2790480905  MEMB      31              0.0000000000
      4185        37  POPS      H14S           51.1395421369        8.8173383404       48.3751991642  MEMB      31              0.0000000000
      4186        37  POPS      C215           50.2277973891        8.0359823031       46.5585187736  MEMB      31              0.0000000000
      4187        37  POPS      H15R           49.6796054311        8.9756169799       46.3455068459  MEMB      31              0.0000000000
      4188        37  POPS      H15S           49.5307028869        7.1942422817       46.3363136448  MEMB      31              0.0000000000
      4189        37  POPS      C216           51.4151897303        7.9519885019       45.6008128942  MEMB      31              0.0000000000
      4190        37  POPS      H16R           52.1591229722        7.2159962266       45.9718589018  MEMB      31              0.0000000000
      4191        37  POPS      H16S           51.9374597244        8.9314196732       45.5205352379  MEMB      31              0.0000000000
      4192        37  POPS      C217           50.9095485686        7.5225110725       44.2186165440  MEMB      31              0.0000000000
      4193        37  POPS      H17R           50.5732333564        8.4289120190       43.6882532130  MEMB      31              0.0000000000
      4194        37  POPS      H17S           50.0198461729        6.8581143738       44.3325360426  MEMB      31              0.0000000000
      4195        37  POPS      C218           51.9481724028        6.7950683045       43.3809490839  MEMB      31              0.0000000000
      4196        37  POPS      H18R           51.5964326847        6.5941727676       42.3520216268  MEMB      31              0.0000000000
      4197        37  POPS      H18S           52.1694898894        5.8280789781       43.8698328628  MEMB      31              0.0000000000
      4198        37  POPS      H18T           52.8740939948        7.3965009649       43.2855200360  MEMB      31              0.0000000000
      4199        37  POPS      C33            52.1752566715        8.1666837292       53.0133998454  MEMB      31              0.0000000000
      4200        37  POPS      H3X            52.0083660341        7.7972923372       51.9769610937  MEMB      31              0.0000000000
      4201        37  POPS      H3Y            53.2059053059        7.8857280285       53.3197141030  MEMB      31              0.0000000000
      4202        37  POPS      C34            52.1739025548        9.7026157967       53.0128781579  MEMB      31              0.0000000000
      4203        37  POPS      H4X            52.7419515016       10.0856576716       52.1374299741  MEMB      31              0.0000000000
      4204        37  POPS      H4Y            52.6983639193       10.0744907180       53.9254814371  MEMB      31              0.0000000000
      4205        37  POPS      C35            50.7658946860       10.2615334073       53.0260306213  MEMB      31              0.0000000000
      4206        37  POPS      H5X            50.1984698149        9.8367998983       53.8847732080  MEMB      31              0.0000000000
      4207        37  POPS      H5Y            50.2190985801        9.9959183619       52.1001537321  MEMB      31              0.0000000000
      4208        37  POPS      C36            50.6919111590       11.7621337189       53.2255588174  MEMB      31              0.0000000000
      4209        37  POPS      H6X            50.9879373361       12.2656327973       52.2821319993  MEMB      31              0.0000000000
      4210        37  POPS      H6Y            51.3883519398       12.0970705703       54.0258428573  MEMB      31              0.0000000000
      4211        37  POPS      C37            49.2529592778       12.0531566705       53.6470538250  MEMB      31              0.0000000000
      4212        37  POPS      H7X            49.1637553347       11.8360502391       54.7359013948  MEMB      31              0.0000000000
      4213        37  POPS      H7Y            48.5719848787       11.3483604143       53.1143412959  MEMB      31              0.0000000000
      4214        37  POPS      C38            48.7838719389       13.4674315601       53.3647383848  MEMB      31              0.0000000000
      4215        37  POPS      H8X            49.3247370047       14.1362970486       54.0543617945  MEMB      31              0.0000000000
      4216        37  POPS      H8Y            47.6976403550       13.5281509848       53.6060927119  MEMB      31              0.0000000000
      4217        37  POPS      C39            49.0440306220       13.9674837037       51.9417175980  MEMB      31              0.0000000000
      4218        37  POPS      H9X            50.1157954164       14.2449429238       51.8250599635  MEMB      31              0.0000000000
      4219        37  POPS      H9Y            48.4368481888       14.8818229030       51.7839545994  MEMB      31              0.0000000000
      4220        37  POPS      C310           48.6517379090       12.9618469192       50.8680029752  MEMB      31              0.0000000000
      4221        37  POPS      H10X           47.6262340203       12.6220399557       51.1140042544  MEMB      31              0.0000000000
      4222        37  POPS      H10Y           49.3297165906       12.0798891598       50.8763357552  MEMB      31              0.0000000000
      4223        37  POPS      C311           48.6582353777       13.5914578676       49.4852532793  MEMB      31              0.0000000000
      4224        37  POPS      H11X           49.6722167517       13.9988506420       49.2687497968  MEMB      31              0.0000000000
      4225        37  POPS      H11Y           47.9465669414       14.4469405778       49.4819079123  MEMB      31              0.0000000000
      4226        37  POPS      C312           48.2575930121       12.6193345136       48.3788632566  MEMB      31              0.0000000000
      4227        37  POPS      H12X           47.2205676066       12.2547686095       48.5532182179  MEMB      31              0.0000000000
      4228        37  POPS      H12Y           48.9391680924       11.7396440101       48.3676156408  MEMB      31              0.0000000000
      4229        37  POPS      C313           48.3261213895       13.3453539812       47.0428366888  MEMB      31              0.0000000000
      4230        37  POPS      H13X           49.3890241020       13.5852881375       46.8208261968  MEMB      31              0.0000000000
      4231        37  POPS      H13Y           47.7866558132       14.3112568470       47.1568309386  MEMB      31              0.0000000000
      4232        37  POPS      C314           47.6825961405       12.5815659587       45.8921031121  MEMB      31              0.0000000000
      4233        37  POPS      H14X           47.6146308043       13.2656022563       45.0186595617  MEMB      31              0.0000000000
      4234        37  POPS      H14Y           46.6503784391       12.2929662575       46.1898992124  MEMB      31              0.0000000000
      4235        37  POPS      C315           48.4603214241       11.3339806811       45.4749302784  MEMB      31              0.0000000000
      4236        37  POPS      H15X           47.9073174280       10.8648590600       44.6327900340  MEMB      31              0.0000000000
      4237        37  POPS      H15Y           48.4476897223       10.6097493078       46.3166455893  MEMB      31              0.0000000000
      4238        37  POPS      C316           49.9048450034       11.6164940365       45.0513392650  MEMB      31              0.0000000000
      4239        37  POPS      H16X           50.5216039914       11.9523685779       45.9111490649  MEMB      31              0.0000000000
      4240        37  POPS      H16Y           49.9195503522       12.4150498714       44.2798558608  MEMB      31              0.0000000000
      4241        37  POPS      H16Z           50.3847865926       10.7097199699       44.6287743217  MEMB      31              0.0000000000
      4242        38  POPC      N              31.0594212753        7.4748864694       62.9235765541  MEMB      32              0.0000000000
      4243        38  POPC      C12            31.8905806564        6.3800787285       63.5907780073  MEMB      32              0.0000000000
      4244        38  POPC      H12A           31.2102060856        5.5527584580       63.7784361441  MEMB      32              0.0000000000
      4245        38  POPC      H12B           32.2398863239        6.7194848041       64.5591328069  MEMB      32              0.0000000000
      4246        38  POPC      C13            30.3780234168        6.8746228466       61.7462002102  MEMB      32              0.0000000000
      4247        38  POPC      H13A           29.6747958728        6.1125869343       62.0618055217  MEMB      32              0.0000000000
      4248        38  POPC      H13B           29.8312009874        7.6125965625       61.1882821785  MEMB      32              0.0000000000
      4249        38  POPC      H13C           31.0999628467        6.3783895247       61.0955258378  MEMB      32              0.0000000000
      4250        38  POPC      C14            29.9816057262        7.8720452518       63.8713677625  MEMB      32              0.0000000000
      4251        38  POPC      H14A           29.4178331966        6.9892921794       64.1878705969  MEMB      32              0.0000000000
      4252        38  POPC      H14B           30.3776489398        8.3163046711       64.7780661860  MEMB      32              0.0000000000
      4253        38  POPC      H14C           29.2528599969        8.5195612155       63.3946812609  MEMB      32              0.0000000000
      4254        38  POPC      C15            31.8513065092        8.6653753960       62.5374914726  MEMB      32              0.0000000000
      4255        38  POPC      H15A           32.4513292519        9.0524682899       63.3542648866  MEMB      32              0.0000000000
      4256        38  POPC      H15B           31.2251733378        9.4963229103       62.2172600169  MEMB      32              0.0000000000
      4257        38  POPC      H15C           32.5213485577        8.4441916336       61.7096291752  MEMB      32              0.0000000000
      4258        38  POPC      C11            33.0724409011        5.7392788991       62.8416104230  MEMB      32              0.0000000000
      4259        38  POPC      H11A           33.5179296181        4.9626224026       63.5128179512  MEMB      32              0.0000000000
      4260        38  POPC      H11B           33.8508167454        6.5047318961       62.6357040182  MEMB      32              0.0000000000
      4261        38  POPC      P              33.5448037542        4.2589686097       60.7516588746  MEMB      32              0.0000000000
      4262        38  POPC      O13            32.8896088801        4.1089159545       59.4321967177  MEMB      32              0.0000000000
      4263        38  POPC      O14            33.8822096893        3.0330758126       61.5120818664  MEMB      32              0.0000000000
      4264        38  POPC      O12            32.5947807156        5.1422374854       61.6482451693  MEMB      32              0.0000000000
      4265        38  POPC      O11            34.8555159143        5.1619301195       60.5977010314  MEMB      32              0.0000000000
      4266        38  POPC      C1             34.8864792182        6.5336481965       60.2011182366  MEMB      32              0.0000000000
      4267        38  POPC      HA             35.6476800686        7.0626463080       60.8113160862  MEMB      32              0.0000000000
      4268        38  POPC      HB             33.9129714586        7.0292719367       60.4200888700  MEMB      32              0.0000000000
      4269        38  POPC      C2             35.2108561887        6.7638356068       58.6870280232  MEMB      32              0.0000000000
      4270        38  POPC      HS             35.1613806907        7.8582072032       58.4744172297  MEMB      32              0.0000000000
      4271        38  POPC      O21            34.2875138358        6.0698351717       57.8701576990  MEMB      32              0.0000000000
      4272        38  POPC      C21            33.0797656951        6.5103045245       57.8092637183  MEMB      32              0.0000000000
      4273        38  POPC      O22            32.5654028007        7.3973908141       58.4726091651  MEMB      32              0.0000000000
      4274        38  POPC      C22            32.4400235922        5.8283255470       56.6111497901  MEMB      32              0.0000000000
      4275        38  POPC      H2R            31.5324139125        5.2940890406       56.9584349375  MEMB      32              0.0000000000
      4276        38  POPC      H2S            33.1520764126        5.0732721454       56.2069589800  MEMB      32              0.0000000000
      4277        38  POPC      C3             36.5812955835        6.2765269134       58.1556498252  MEMB      32              0.0000000000
      4278        38  POPC      HX             36.6938794042        5.2348904689       58.5412463947  MEMB      32              0.0000000000
      4279        38  POPC      HY             37.4133418290        6.8991122252       58.5529540362  MEMB      32              0.0000000000
      4280        38  POPC      O31            36.5521794373        6.2981198828       56.6927533206  MEMB      32              0.0000000000
      4281        38  POPC      C31            37.4690324033        5.5172013688       56.1542520403  MEMB      32              0.0000000000
      4282        38  POPC      O32            38.3991261661        5.0269376286       56.7585515335  MEMB      32              0.0000000000
      4283        38  POPC      C32            37.3664540670        5.3180233094       54.6340888359  MEMB      32              0.0000000000
      4284        38  POPC      H2X            37.8088199079        4.3179882507       54.4325558504  MEMB      32              0.0000000000
      4285        38  POPC      H2Y            38.0577482012        6.0577155776       54.1884119150  MEMB      32              0.0000000000
      4286        38  POPC      C23            32.1162338481        6.8591253650       55.5129461045  MEMB      32              0.0000000000
      4287        38  POPC      H3R            32.9528721811        7.5845244673       55.3804972148  MEMB      32              0.0000000000
      4288        38  POPC      H3S            31.2222850377        7.4398174430       55.8214368863  MEMB      32              0.0000000000
      4289        38  POPC      C24            31.8536800435        6.1899694123       54.1655678457  MEMB      32              0.0000000000
      4290        38  POPC      H4R            32.8315249122        6.0080311042       53.6691300336  MEMB      32              0.0000000000
      4291        38  POPC      H4S            31.2879722581        6.8932340347       53.5156791359  MEMB      32              0.0000000000
      4292        38  POPC      C25            31.0936081430        4.8605455334       54.3024358022  MEMB      32              0.0000000000
      4293        38  POPC      H5R            30.2590926972        4.9684350816       55.0177471700  MEMB      32              0.0000000000
      4294        38  POPC      H5S            31.7682601026        4.0802149170       54.7212598562  MEMB      32              0.0000000000
      4295        38  POPC      C26            30.5247736195        4.3836802436       52.9745101764  MEMB      32              0.0000000000
      4296        38  POPC      H6R            30.1370959773        5.2742868789       52.4351705145  MEMB      32              0.0000000000
      4297        38  POPC      H6S            29.6825748311        3.6746458569       53.1037915816  MEMB      32              0.0000000000
      4298        38  POPC      C27            31.6432059468        3.7552781629       52.1626030638  MEMB      32              0.0000000000
      4299        38  POPC      H7R            31.9467890856        2.7583114600       52.5457238255  MEMB      32              0.0000000000
      4300        38  POPC      H7S            32.4726157457        4.4471393751       52.3319827064  MEMB      32              0.0000000000
      4301        38  POPC      C28            31.4178019498        3.7981510162       50.6672426903  MEMB      32              0.0000000000
      4302        38  POPC      H8R            32.3849213600        3.5660907546       50.1610165585  MEMB      32              0.0000000000
      4303        38  POPC      H8S            31.1321191265        4.8353866990       50.3774796907  MEMB      32              0.0000000000
      4304        38  POPC      C29            30.3391083946        2.8295806768       50.3112498545  MEMB      32              0.0000000000
      4305        38  POPC      H91            29.6788121640        2.4761531807       51.1166055159  MEMB      32              0.0000000000
      4306        38  POPC      C210           30.1964015789        2.3909781723       49.0669382486  MEMB      32              0.0000000000
      4307        38  POPC      H101           29.4058758994        1.6650276180       48.8251575483  MEMB      32              0.0000000000
      4308        38  POPC      C211           31.1066010251        2.8413388290       47.9570666355  MEMB      32              0.0000000000
      4309        38  POPC      H11R           32.1527020514        2.5230581799       48.1785662053  MEMB      32              0.0000000000
      4310        38  POPC      H11S           31.1154900443        3.9491571418       47.8507087509  MEMB      32              0.0000000000
      4311        38  POPC      C212           30.6978352359        2.1978803527       46.6367906424  MEMB      32              0.0000000000
      4312        38  POPC      H12R           30.0798634213        1.3094840438       46.8546392695  MEMB      32              0.0000000000
      4313        38  POPC      H12S           31.6202169315        1.8708471944       46.1044667069  MEMB      32              0.0000000000
      4314        38  POPC      C213           29.9366801571        3.0929511393       45.6699946522  MEMB      32              0.0000000000
      4315        38  POPC      H13R           29.2607617435        3.7582200498       46.2372824920  MEMB      32              0.0000000000
      4316        38  POPC      H13S           29.3148227005        2.4772452426       44.9834876779  MEMB      32              0.0000000000
      4317        38  POPC      C214           30.9647732967        3.8637064012       44.8622977410  MEMB      32              0.0000000000
      4318        38  POPC      H14R           31.5160891200        3.1717833762       44.1857159352  MEMB      32              0.0000000000
      4319        38  POPC      H14S           31.7031023130        4.2695390109       45.5959260656  MEMB      32              0.0000000000
      4320        38  POPC      C215           30.4255911887        5.0361734151       44.0586452362  MEMB      32              0.0000000000
      4321        38  POPC      H15R           29.6851067128        5.5987264505       44.6705942830  MEMB      32              0.0000000000
      4322        38  POPC      H15S           29.9080790864        4.6925846629       43.1386774582  MEMB      32              0.0000000000
      4323        38  POPC      C216           31.6041401424        5.9544176845       43.7417383423  MEMB      32              0.0000000000
      4324        38  POPC      H16R           31.6369275888        6.2367744433       42.6723575674  MEMB      32              0.0000000000
      4325        38  POPC      H16S           32.5338847879        5.3749552893       43.9360932823  MEMB      32              0.0000000000
      4326        38  POPC      C217           31.5778834119        7.1739813635       44.6633467322  MEMB      32              0.0000000000
      4327        38  POPC      H17R           31.7945347973        6.8297883493       45.7002629705  MEMB      32              0.0000000000
      4328        38  POPC      H17S           30.5502304164        7.5741025322       44.6911355334  MEMB      32              0.0000000000
      4329        38  POPC      C218           32.5036395520        8.3334915359       44.3120393850  MEMB      32              0.0000000000
      4330        38  POPC      H18R           32.4799391336        9.0859368491       45.1311784919  MEMB      32              0.0000000000
      4331        38  POPC      H18S           32.1803316557        8.8342824301       43.3757514114  MEMB      32              0.0000000000
      4332        38  POPC      H18T           33.5513889228        7.9991019312       44.1937421597  MEMB      32              0.0000000000
      4333        38  POPC      C33            35.9914032041        5.3909017083       53.9326416622  MEMB      32              0.0000000000
      4334        38  POPC      H3X            35.4627039057        6.3322405075       54.1967343303  MEMB      32              0.0000000000
      4335        38  POPC      H3Y            35.3604440171        4.5434377891       54.2737543487  MEMB      32              0.0000000000
      4336        38  POPC      C34            36.1834758760        5.3402865929       52.3973346378  MEMB      32              0.0000000000
      4337        38  POPC      H4X            37.0212760016        4.6558015656       52.1443289035  MEMB      32              0.0000000000
      4338        38  POPC      H4Y            36.4773544531        6.3446543498       52.0756914230  MEMB      32              0.0000000000
      4339        38  POPC      C35            34.9460940979        4.9363499337       51.5918695484  MEMB      32              0.0000000000
      4340        38  POPC      H5X            34.2784697001        4.6307123415       52.4080001918  MEMB      32              0.0000000000
      4341        38  POPC      H5Y            35.1051746255        4.0237324047       50.9864488837  MEMB      32              0.0000000000
      4342        38  POPC      C36            34.2984619119        6.0342439529       50.7089475193  MEMB      32              0.0000000000
      4343        38  POPC      H6X            34.3770344389        7.0163466204       51.2202744575  MEMB      32              0.0000000000
      4344        38  POPC      H6Y            33.2124173771        5.8176129913       50.6223409626  MEMB      32              0.0000000000
      4345        38  POPC      C37            34.8398866344        6.1143903114       49.2612738556  MEMB      32              0.0000000000
      4346        38  POPC      H7X            34.8251798795        5.1026855951       48.8017772405  MEMB      32              0.0000000000
      4347        38  POPC      H7Y            35.8979412461        6.4466345663       49.2973549423  MEMB      32              0.0000000000
      4348        38  POPC      C38            34.0708230378        7.0900458961       48.3400505921  MEMB      32              0.0000000000
      4349        38  POPC      H8X            34.0264979447        8.0697046773       48.8716559228  MEMB      32              0.0000000000
      4350        38  POPC      H8Y            33.0288652080        6.7424108318       48.1762723165  MEMB      32              0.0000000000
      4351        38  POPC      C39            34.7801442338        7.3531980184       46.9900085937  MEMB      32              0.0000000000
      4352        38  POPC      H9X            35.8500926937        7.5128593417       47.2504591694  MEMB      32              0.0000000000
      4353        38  POPC      H9Y            34.4032913061        8.2905240677       46.5260291630  MEMB      32              0.0000000000
      4354        38  POPC      C310           34.7192885191        6.2200699585       45.9461869611  MEMB      32              0.0000000000
      4355        38  POPC      H10X           33.7913287171        6.1993335787       45.3693057137  MEMB      32              0.0000000000
      4356        38  POPC      H10Y           34.7248728154        5.2653295011       46.5247170480  MEMB      32              0.0000000000
      4357        38  POPC      C311           35.9556223739        6.1814348771       45.0225265020  MEMB      32              0.0000000000
      4358        38  POPC      H11X           36.2463925348        5.1365578028       45.1220655623  MEMB      32              0.0000000000
      4359        38  POPC      H11Y           36.7591338691        6.7847328314       45.4781633396  MEMB      32              0.0000000000
      4360        38  POPC      C312           35.9564734849        6.3479690798       43.4782535032  MEMB      32              0.0000000000
      4361        38  POPC      H12X           36.9087758779        5.8737754156       43.1338298967  MEMB      32              0.0000000000
      4362        38  POPC      H12Y           36.0409875460        7.4107912012       43.2002759665  MEMB      32              0.0000000000
      4363        38  POPC      C313           34.8273443777        5.6558903621       42.6995746704  MEMB      32              0.0000000000
      4364        38  POPC      H13X           33.9419217454        6.3207351968       42.7235754694  MEMB      32              0.0000000000
      4365        38  POPC      H13Y           34.5623191788        4.7172973450       43.2253358331  MEMB      32              0.0000000000
      4366        38  POPC      C314           35.1285142250        5.3218538284       41.2226469762  MEMB      32              0.0000000000
      4367        38  POPC      H14X           36.1620017684        5.6238914216       40.9493495041  MEMB      32              0.0000000000
      4368        38  POPC      H14Y           34.4264065022        5.9061406733       40.5944775951  MEMB      32              0.0000000000
      4369        38  POPC      C315           34.8694595469        3.8596557018       40.8218790576  MEMB      32              0.0000000000
      4370        38  POPC      H15X           35.5397818965        3.1920474366       41.4064713170  MEMB      32              0.0000000000
      4371        38  POPC      H15Y           35.1431023860        3.7418833229       39.7465564170  MEMB      32              0.0000000000
      4372        38  POPC      C316           33.4074706819        3.4229281279       40.9977331644  MEMB      32              0.0000000000
      4373        38  POPC      H16X           32.7228402457        4.1378120109       40.4914417578  MEMB      32              0.0000000000
      4374        38  POPC      H16Y           33.1323444610        3.3935983666       42.0732597847  MEMB      32              0.0000000000
      4375        38  POPC      H16Z           33.2425345404        2.4124079298       40.5672490878  MEMB      32              0.0000000000
      4376        39  POPC      N               6.4626955422       30.5353540044       62.6231242278  MEMB      33              0.0000000000
      4377        39  POPC      C12             6.8729218572       29.0857463656       62.8030999737  MEMB      33              0.0000000000
      4378        39  POPC      H12A            6.2942051525       28.5136166755       62.0808541456  MEMB      33              0.0000000000
      4379        39  POPC      H12B            6.6127011625       28.7737160423       63.8007557801  MEMB      33              0.0000000000
      4380        39  POPC      C13             7.6300197839       31.4388744390       62.9160308518  MEMB      33              0.0000000000
      4381        39  POPC      H13A            7.3676428361       32.4803285616       62.8009617345  MEMB      33              0.0000000000
      4382        39  POPC      H13B            7.9992868911       31.2532938398       63.9172729206  MEMB      33              0.0000000000
      4383        39  POPC      H13C            8.4497468421       31.1658115549       62.2428558866  MEMB      33              0.0000000000
      4384        39  POPC      C14             5.9924539169       30.7817952916       61.2156182423  MEMB      33              0.0000000000
      4385        39  POPC      H14A            5.2995898078       30.0129993463       60.8915273316  MEMB      33              0.0000000000
      4386        39  POPC      H14B            5.4794697938       31.7368857952       61.1376700382  MEMB      33              0.0000000000
      4387        39  POPC      H14C            6.8174079710       30.7707390164       60.5024636210  MEMB      33              0.0000000000
      4388        39  POPC      C15             5.3382410914       30.8685603376       63.5374852186  MEMB      33              0.0000000000
      4389        39  POPC      H15A            4.8854446419       31.8337107383       63.2841909310  MEMB      33              0.0000000000
      4390        39  POPC      H15B            5.6607984553       30.9231411648       64.5708466330  MEMB      33              0.0000000000
      4391        39  POPC      H15C            4.5265495911       30.1557477949       63.4658953060  MEMB      33              0.0000000000
      4392        39  POPC      C11             8.3642199835       28.7218163670       62.5989124567  MEMB      33              0.0000000000
      4393        39  POPC      H11A            8.5193845654       27.6168682334       62.5823065349  MEMB      33              0.0000000000
      4394        39  POPC      H11B            8.9623274092       29.0925061337       63.4607590289  MEMB      33              0.0000000000
      4395        39  POPC      P               8.5498923733       28.7003294678       60.0078836953  MEMB      33              0.0000000000
      4396        39  POPC      O13             9.4267977671       27.5410190770       59.7770608863  MEMB      33              0.0000000000
      4397        39  POPC      O14             8.5354349922       29.8249868295       59.0524886320  MEMB      33              0.0000000000
      4398        39  POPC      O12             8.8617988686       29.3228704464       61.4241250316  MEMB      33              0.0000000000
      4399        39  POPC      O11             7.0605984114       28.1132565359       60.1250246150  MEMB      33              0.0000000000
      4400        39  POPC      C1              6.8345199175       26.7235342386       59.8129423401  MEMB      33              0.0000000000
      4401        39  POPC      HA              5.8852652975       26.4025615249       60.2930683623  MEMB      33              0.0000000000
      4402        39  POPC      HB              7.6340593458       26.0843111308       60.2526038779  MEMB      33              0.0000000000
      4403        39  POPC      C2              6.7422115887       26.3465142129       58.2833789066  MEMB      33              0.0000000000
      4404        39  POPC      HS              7.0168464368       25.2669976826       58.2054798072  MEMB      33              0.0000000000
      4405        39  POPC      O21             7.5634849237       27.1805486161       57.4716146128  MEMB      33              0.0000000000
      4406        39  POPC      C21             8.6999203152       26.6990031479       57.0383403690  MEMB      33              0.0000000000
      4407        39  POPC      O22             9.0864937784       25.5413695728       57.1437331233  MEMB      33              0.0000000000
      4408        39  POPC      C22             9.4276394420       27.8423425406       56.3487130291  MEMB      33              0.0000000000
      4409        39  POPC      H2R            10.4883573254       27.5844774103       56.3236388447  MEMB      33              0.0000000000
      4410        39  POPC      H2S             9.3351827369       28.7427557826       56.9941419426  MEMB      33              0.0000000000
      4411        39  POPC      C3              5.3050869962       26.4662143102       57.7120927870  MEMB      33              0.0000000000
      4412        39  POPC      HX              4.6037695371       26.1257134904       58.4983474526  MEMB      33              0.0000000000
      4413        39  POPC      HY              5.2204360145       25.7745172167       56.8455146590  MEMB      33              0.0000000000
      4414        39  POPC      O31             5.0033129836       27.7901442041       57.2330643416  MEMB      33              0.0000000000
      4415        39  POPC      C31             4.7732850287       28.6581194305       58.1958156488  MEMB      33              0.0000000000
      4416        39  POPC      O32             4.2507397395       28.3879762710       59.2704623843  MEMB      33              0.0000000000
      4417        39  POPC      C32             5.3343605366       30.0130229671       57.7652403234  MEMB      33              0.0000000000
      4418        39  POPC      H2X             6.4426748868       29.9459183178       57.8188890183  MEMB      33              0.0000000000
      4419        39  POPC      H2Y             5.0143878675       30.7484889768       58.5180664955  MEMB      33              0.0000000000
      4420        39  POPC      C23             8.8832883959       28.2171126635       54.9598332679  MEMB      33              0.0000000000
      4421        39  POPC      H3R             9.5822211971       28.9929903159       54.5706530798  MEMB      33              0.0000000000
      4422        39  POPC      H3S             7.9002277669       28.7200699891       55.0698282290  MEMB      33              0.0000000000
      4423        39  POPC      C24             8.8149887378       27.0661056812       53.9425060253  MEMB      33              0.0000000000
      4424        39  POPC      H4R             9.6101158539       26.3204107880       54.1599559968  MEMB      33              0.0000000000
      4425        39  POPC      H4S             9.0173158169       27.4836369404       52.9291763609  MEMB      33              0.0000000000
      4426        39  POPC      C25             7.4483563529       26.3644593364       53.8710872940  MEMB      33              0.0000000000
      4427        39  POPC      H5R             7.2871405562       25.7406241189       54.7775058970  MEMB      33              0.0000000000
      4428        39  POPC      H5S             7.4667566454       25.6829030981       52.9905598791  MEMB      33              0.0000000000
      4429        39  POPC      C26             6.2532798986       27.3129086999       53.7012228621  MEMB      33              0.0000000000
      4430        39  POPC      H6R             6.5642145044       28.1626566681       53.0508090469  MEMB      33              0.0000000000
      4431        39  POPC      H6S             5.9564161231       27.7290790133       54.6905126654  MEMB      33              0.0000000000
      4432        39  POPC      C27             5.0430907210       26.6208388420       53.0543422493  MEMB      33              0.0000000000
      4433        39  POPC      H7R             4.8641869177       25.6503607900       53.5660896237  MEMB      33              0.0000000000
      4434        39  POPC      H7S             5.3008501694       26.4017754856       51.9935166829  MEMB      33              0.0000000000
      4435        39  POPC      C28             3.7386855888       27.4393950022       53.1117724055  MEMB      33              0.0000000000
      4436        39  POPC      H8R             3.3517821158       27.4246924737       54.1564045309  MEMB      33              0.0000000000
      4437        39  POPC      H8S             2.9745450364       26.9362970820       52.4806738485  MEMB      33              0.0000000000
      4438        39  POPC      C29             3.9641901411       28.8602530430       52.6782537967  MEMB      33              0.0000000000
      4439        39  POPC      H91             4.0728682479       29.5781466909       53.5039387506  MEMB      33              0.0000000000
      4440        39  POPC      C210            4.0862104223       29.2972144591       51.4171100899  MEMB      33              0.0000000000
      4441        39  POPC      H101            4.2539740331       30.3718553795       51.2468361239  MEMB      33              0.0000000000
      4442        39  POPC      C211            4.0205457275       28.4755050095       50.1573722491  MEMB      33              0.0000000000
      4443        39  POPC      H11R            3.1694896532       27.7617034817       50.1718418741  MEMB      33              0.0000000000
      4444        39  POPC      H11S            4.9503404319       27.8845292805       49.9918704257  MEMB      33              0.0000000000
      4445        39  POPC      C212            3.8356654543       29.4828170892       49.0166371599  MEMB      33              0.0000000000
      4446        39  POPC      H12R            4.7651970554       30.0896356460       48.9096391689  MEMB      33              0.0000000000
      4447        39  POPC      H12S            2.9922697206       30.1751585023       49.2489833650  MEMB      33              0.0000000000
      4448        39  POPC      C213            3.5280581386       28.8619091471       47.6572913688  MEMB      33              0.0000000000
      4449        39  POPC      H13R            2.6638664867       28.1695979809       47.7494946814  MEMB      33              0.0000000000
      4450        39  POPC      H13S            4.4185973181       28.2872261276       47.3238841977  MEMB      33              0.0000000000
      4451        39  POPC      C214            3.2367013285       29.9785735262       46.6510577002  MEMB      33              0.0000000000
      4452        39  POPC      H14R            4.1762467052       30.5732902906       46.5725292085  MEMB      33              0.0000000000
      4453        39  POPC      H14S            2.4340022203       30.6336717645       47.0535834745  MEMB      33              0.0000000000
      4454        39  POPC      C215            2.8651676663       29.5548201396       45.2301978364  MEMB      33              0.0000000000
      4455        39  POPC      H15R            3.5657446031       28.7701573934       44.8857287275  MEMB      33              0.0000000000
      4456        39  POPC      H15S            3.0206431216       30.4470341297       44.5769393362  MEMB      33              0.0000000000
      4457        39  POPC      C216            1.4045576507       29.1219055010       45.0422110454  MEMB      33              0.0000000000
      4458        39  POPC      H16R            1.1614937002       29.2797879057       43.9644047600  MEMB      33              0.0000000000
      4459        39  POPC      H16S            0.7197389215       29.7687900058       45.6309691126  MEMB      33              0.0000000000
      4460        39  POPC      C217            1.1676453590       27.6419988982       45.3417821442  MEMB      33              0.0000000000
      4461        39  POPC      H17R            1.0676664421       27.4609688883       46.4351351263  MEMB      33              0.0000000000
      4462        39  POPC      H17S            2.0489934452       27.0767409864       44.9718789202  MEMB      33              0.0000000000
      4463        39  POPC      C218           -0.0228874778       27.0644513904       44.6007086456  MEMB      33              0.0000000000
      4464        39  POPC      H18R            0.0586059402       25.9557925440       44.5810586951  MEMB      33              0.0000000000
      4465        39  POPC      H18S           -0.0195356894       27.4191143914       43.5468632746  MEMB      33              0.0000000000
      4466        39  POPC      H18T           -0.9832108995       27.3494240716       45.0778457926  MEMB      33              0.0000000000
      4467        39  POPC      C33             4.9432138345       30.4491475656       56.3306433857  MEMB      33              0.0000000000
      4468        39  POPC      H3X             4.0171605257       29.9209149295       56.0263854565  MEMB      33              0.0000000000
      4469        39  POPC      H3Y             5.7230549501       30.0997001147       55.6235150760  MEMB      33              0.0000000000
      4470        39  POPC      C34             4.7334463334       31.9739154742       56.2158295957  MEMB      33              0.0000000000
      4471        39  POPC      H4X             5.2945239104       32.4905232682       57.0269554425  MEMB      33              0.0000000000
      4472        39  POPC      H4Y             3.6565847012       32.1867665271       56.4014498003  MEMB      33              0.0000000000
      4473        39  POPC      C35             5.1302457134       32.6189878871       54.8762016331  MEMB      33              0.0000000000
      4474        39  POPC      H5X             4.5674645013       33.5828546237       54.8109488720  MEMB      33              0.0000000000
      4475        39  POPC      H5Y             4.8022234623       31.9962250915       54.0202713523  MEMB      33              0.0000000000
      4476        39  POPC      C36             6.6220933742       33.0009364842       54.7691621406  MEMB      33              0.0000000000
      4477        39  POPC      H6X             6.9792642320       33.4007444049       55.7442192334  MEMB      33              0.0000000000
      4478        39  POPC      H6Y             6.7150793237       33.8322724720       54.0333893913  MEMB      33              0.0000000000
      4479        39  POPC      C37             7.5532849978       31.8679565142       54.3067747329  MEMB      33              0.0000000000
      4480        39  POPC      H7X             7.4555887578       30.9943592395       54.9811593893  MEMB      33              0.0000000000
      4481        39  POPC      H7Y             8.6103347938       32.1941881873       54.3901790295  MEMB      33              0.0000000000
      4482        39  POPC      C38             7.2775438797       31.4580266216       52.8573681144  MEMB      33              0.0000000000
      4483        39  POPC      H8X             7.1538063641       32.3709307159       52.2328077511  MEMB      33              0.0000000000
      4484        39  POPC      H8Y             6.3192534944       30.8927802725       52.8289153948  MEMB      33              0.0000000000
      4485        39  POPC      C39             8.3764286514       30.5933656618       52.2301498728  MEMB      33              0.0000000000
      4486        39  POPC      H9X             8.5755118216       29.7311121338       52.8947462955  MEMB      33              0.0000000000
      4487        39  POPC      H9Y             9.3219869852       31.1704360051       52.1332711472  MEMB      33              0.0000000000
      4488        39  POPC      C310            7.9061202677       30.0604817688       50.8751828368  MEMB      33              0.0000000000
      4489        39  POPC      H10X            7.5902398708       30.9175709697       50.2483994447  MEMB      33              0.0000000000
      4490        39  POPC      H10Y            6.9843915817       29.4615814193       51.0628919053  MEMB      33              0.0000000000
      4491        39  POPC      C311            8.9101044352       29.1458571042       50.1549573311  MEMB      33              0.0000000000
      4492        39  POPC      H11X            8.3404477836       28.2729755284       49.7612934709  MEMB      33              0.0000000000
      4493        39  POPC      H11Y            9.6449392658       28.7401116457       50.8854231715  MEMB      33              0.0000000000
      4494        39  POPC      C312            9.6577760142       29.7811306509       48.9651741065  MEMB      33              0.0000000000
      4495        39  POPC      H12X           10.1419197276       28.9581140349       48.3927986624  MEMB      33              0.0000000000
      4496        39  POPC      H12Y           10.4722166692       30.4235847888       49.3662583829  MEMB      33              0.0000000000
      4497        39  POPC      C313            8.8055990360       30.6251620408       47.9909028991  MEMB      33              0.0000000000
      4498        39  POPC      H13X            9.4337411176       30.9685765456       47.1410324553  MEMB      33              0.0000000000
      4499        39  POPC      H13Y            8.4893994031       31.5495561187       48.5205682514  MEMB      33              0.0000000000
      4500        39  POPC      C314            7.5352357470       29.9426444601       47.4595926887  MEMB      33              0.0000000000
      4501        39  POPC      H14X            6.7138287198       30.6950836770       47.4324276262  MEMB      33              0.0000000000
      4502        39  POPC      H14Y            7.2017205086       29.1391286999       48.1491225498  MEMB      33              0.0000000000
      4503        39  POPC      C315            7.6676968446       29.3720082679       46.0436116236  MEMB      33              0.0000000000
      4504        39  POPC      H15X            6.7460866581       28.7785748496       45.8611122089  MEMB      33              0.0000000000
      4505        39  POPC      H15Y            8.5307070440       28.6727930739       45.9899713395  MEMB      33              0.0000000000
      4506        39  POPC      C316            7.7682840257       30.4372266914       44.9460272213  MEMB      33              0.0000000000
      4507        39  POPC      H16X            8.8043919815       30.8254653009       44.8517612624  MEMB      33              0.0000000000
      4508        39  POPC      H16Y            7.0883350761       31.2845864309       45.1642201150  MEMB      33              0.0000000000
      4509        39  POPC      H16Z            7.4621268078       30.0096502966       43.9705903863  MEMB      33              0.0000000000
      4510        40  POPC      N              51.4790606346       53.5459737000       63.6326499896  MEMB      34              0.0000000000
      4511        40  POPC      C12            52.0705199444       53.9466399483       62.2812911008  MEMB      34              0.0000000000
      4512        40  POPC      H12A           52.4698211730       53.0631611285       61.7846776097  MEMB      34              0.0000000000
      4513        40  POPC      H12B           52.8785480892       54.6533204229       62.4448657532  MEMB      34              0.0000000000
      4514        40  POPC      C13            50.5470744138       54.6246445352       64.1178755569  MEMB      34              0.0000000000
      4515        40  POPC      H13A           49.7158893016       54.6936400640       63.4170294111  MEMB      34              0.0000000000
      4516        40  POPC      H13B           50.1829705049       54.4206031717       65.1196169546  MEMB      34              0.0000000000
      4517        40  POPC      H13C           51.0643870111       55.5783265194       64.1445345016  MEMB      34              0.0000000000
      4518        40  POPC      C14            50.6790377828       52.2802175755       63.5063200737  MEMB      34              0.0000000000
      4519        40  POPC      H14A           51.3094004427       51.4045072292       63.4088918911  MEMB      34              0.0000000000
      4520        40  POPC      H14B           50.0037703228       52.1528055755       64.3404861148  MEMB      34              0.0000000000
      4521        40  POPC      H14C           50.0782043380       52.3493683242       62.5935903703  MEMB      34              0.0000000000
      4522        40  POPC      C15            52.5572975206       53.3497598375       64.6397587890  MEMB      34              0.0000000000
      4523        40  POPC      H15A           53.0703006955       54.2804218682       64.8590451367  MEMB      34              0.0000000000
      4524        40  POPC      H15B           53.2966754473       52.6400513948       64.2743601314  MEMB      34              0.0000000000
      4525        40  POPC      H15C           52.1291395217       52.9727016029       65.5639276734  MEMB      34              0.0000000000
      4526        40  POPC      C11            51.0909724637       54.5586181778       61.2583998111  MEMB      34              0.0000000000
      4527        40  POPC      H11A           51.6125282331       54.6630871449       60.2748623505  MEMB      34              0.0000000000
      4528        40  POPC      H11B           50.7748518139       55.5761580417       61.5750233410  MEMB      34              0.0000000000
      4529        40  POPC      P              49.0679355083       53.5063683902       59.9145896830  MEMB      34              0.0000000000
      4530        40  POPC      O13            49.2965691427       54.5613561012       58.9145038595  MEMB      34              0.0000000000
      4531        40  POPC      O14            47.6928863899       53.3415555768       60.4205901016  MEMB      34              0.0000000000
      4532        40  POPC      O12            49.9592877992       53.7158645008       61.1910832805  MEMB      34              0.0000000000
      4533        40  POPC      O11            49.5425283884       52.1033401270       59.3340122786  MEMB      34              0.0000000000
      4534        40  POPC      C1             49.7533440317       51.0023330413       60.2254243470  MEMB      34              0.0000000000
      4535        40  POPC      HA             48.8198030830       50.7607082786       60.7799201980  MEMB      34              0.0000000000
      4536        40  POPC      HB             50.5428712198       51.2654250796       60.9620063087  MEMB      34              0.0000000000
      4537        40  POPC      C2             50.2436282524       49.6905241424       59.5193462453  MEMB      34              0.0000000000
      4538        40  POPC      HS             50.7078775335       49.0351816270       60.2913842291  MEMB      34              0.0000000000
      4539        40  POPC      O21            51.1857058275       49.9001744504       58.4772015065  MEMB      34              0.0000000000
      4540        40  POPC      C21            52.1892075295       50.7153833277       58.6386006872  MEMB      34              0.0000000000
      4541        40  POPC      O22            52.5577229235       51.2994902935       59.6427847791  MEMB      34              0.0000000000
      4542        40  POPC      C22            52.8387806321       50.8420692219       57.2600712566  MEMB      34              0.0000000000
      4543        40  POPC      H2R            52.5986056812       49.9354418903       56.6681474997  MEMB      34              0.0000000000
      4544        40  POPC      H2S            53.9359762706       50.8687868309       57.4009568386  MEMB      34              0.0000000000
      4545        40  POPC      C3             49.0909069237       48.8971054569       58.8518051409  MEMB      34              0.0000000000
      4546        40  POPC      HX             48.3424681944       48.6289954654       59.6263651005  MEMB      34              0.0000000000
      4547        40  POPC      HY             49.5125026251       47.9453170866       58.4449923379  MEMB      34              0.0000000000
      4548        40  POPC      O31            48.4781860453       49.7258137650       57.8434534333  MEMB      34              0.0000000000
      4549        40  POPC      C31            48.8346251220       49.5123601349       56.5893374436  MEMB      34              0.0000000000
      4550        40  POPC      O32            49.1428376654       48.4336927937       56.1135784702  MEMB      34              0.0000000000
      4551        40  POPC      C32            48.7557286760       50.7925070569       55.7549940710  MEMB      34              0.0000000000
      4552        40  POPC      H2X            48.1124717500       50.5116747489       54.9021989734  MEMB      34              0.0000000000
      4553        40  POPC      H2Y            49.7709162935       50.9712642071       55.3494852145  MEMB      34              0.0000000000
      4554        40  POPC      C23            52.3155894146       52.0871352794       56.5228353227  MEMB      34              0.0000000000
      4555        40  POPC      H3R            52.6117616909       53.0041868499       57.0761520062  MEMB      34              0.0000000000
      4556        40  POPC      H3S            51.2057138734       52.0818268639       56.5049758719  MEMB      34              0.0000000000
      4557        40  POPC      C24            52.8356789619       52.1539568586       55.0871031666  MEMB      34              0.0000000000
      4558        40  POPC      H4R            52.3374368346       51.3667234208       54.4782869860  MEMB      34              0.0000000000
      4559        40  POPC      H4S            53.9289954914       51.9309220931       55.0988541602  MEMB      34              0.0000000000
      4560        40  POPC      C25            52.6211333802       53.5334303931       54.4576254845  MEMB      34              0.0000000000
      4561        40  POPC      H5R            52.8170243396       54.3074121367       55.2359350488  MEMB      34              0.0000000000
      4562        40  POPC      H5S            51.5630797386       53.6502732818       54.1375461542  MEMB      34              0.0000000000
      4563        40  POPC      C26            53.5769124696       53.7778086555       53.2899326696  MEMB      34              0.0000000000
      4564        40  POPC      H6R            54.6208639109       53.7510330887       53.6852121769  MEMB      34              0.0000000000
      4565        40  POPC      H6S            53.4177957256       54.7903255561       52.8606115542  MEMB      34              0.0000000000
      4566        40  POPC      C27            53.4771454867       52.7234621428       52.1836117064  MEMB      34              0.0000000000
      4567        40  POPC      H7R            53.5089469630       51.6892944935       52.5873309957  MEMB      34              0.0000000000
      4568        40  POPC      H7S            54.3870102537       52.8367444186       51.5640625098  MEMB      34              0.0000000000
      4569        40  POPC      C28            52.2677193026       52.9062661829       51.2676779161  MEMB      34              0.0000000000
      4570        40  POPC      H8R            52.1632046464       53.9853303626       51.0120759217  MEMB      34              0.0000000000
      4571        40  POPC      H8S            51.3373770871       52.6107424201       51.8023799830  MEMB      34              0.0000000000
      4572        40  POPC      C29            52.4944561298       52.1099280119       50.0092810668  MEMB      34              0.0000000000
      4573        40  POPC      H91            53.0374982297       52.6549650862       49.2217017494  MEMB      34              0.0000000000
      4574        40  POPC      C210           52.1310326500       50.8355818727       49.7878675324  MEMB      34              0.0000000000
      4575        40  POPC      H101           52.3334098419       50.3906848763       48.8017230738  MEMB      34              0.0000000000
      4576        40  POPC      C211           51.4223887671       49.9350786457       50.7649519852  MEMB      34              0.0000000000
      4577        40  POPC      H11R           51.6673341024       50.2385739871       51.8091990134  MEMB      34              0.0000000000
      4578        40  POPC      H11S           51.8203956652       48.9092639291       50.6532258924  MEMB      34              0.0000000000
      4579        40  POPC      C212           49.8878213166       49.8475497245       50.6595750326  MEMB      34              0.0000000000
      4580        40  POPC      H12R           49.4445123526       50.8419977054       50.8832643137  MEMB      34              0.0000000000
      4581        40  POPC      H12S           49.5597303049       49.1556523222       51.4717617251  MEMB      34              0.0000000000
      4582        40  POPC      C213           49.3284837083       49.3004723725       49.3303480171  MEMB      34              0.0000000000
      4583        40  POPC      H13R           48.2993147964       48.9338869677       49.5471081481  MEMB      34              0.0000000000
      4584        40  POPC      H13S           49.9196745041       48.4347322855       48.9670861489  MEMB      34              0.0000000000
      4585        40  POPC      C214           49.2021872265       50.3759461452       48.2425058657  MEMB      34              0.0000000000
      4586        40  POPC      H14R           50.1425827368       50.4835660103       47.6665395752  MEMB      34              0.0000000000
      4587        40  POPC      H14S           49.0744508770       51.3310890578       48.7893541171  MEMB      34              0.0000000000
      4588        40  POPC      C215           47.9776867494       50.2355308592       47.3192511204  MEMB      34              0.0000000000
      4589        40  POPC      H15R           47.5798505258       51.2624578245       47.1405742187  MEMB      34              0.0000000000
      4590        40  POPC      H15S           47.1648198739       49.6649802274       47.8138729220  MEMB      34              0.0000000000
      4591        40  POPC      C216           48.2940980332       49.6521460646       45.9400336067  MEMB      34              0.0000000000
      4592        40  POPC      H16R           49.3896204338       49.6705681629       45.7636932173  MEMB      34              0.0000000000
      4593        40  POPC      H16S           47.8145294164       50.2922947527       45.1698257972  MEMB      34              0.0000000000
      4594        40  POPC      C217           47.8056237415       48.2244183028       45.7349731966  MEMB      34              0.0000000000
      4595        40  POPC      H17R           46.7022777998       48.1773581115       45.8778561154  MEMB      34              0.0000000000
      4596        40  POPC      H17S           48.2814826346       47.5821230372       46.5100762983  MEMB      34              0.0000000000
      4597        40  POPC      C218           48.1625399637       47.6973950254       44.3457780762  MEMB      34              0.0000000000
      4598        40  POPC      H18R           47.8842268058       46.6302965192       44.2337054367  MEMB      34              0.0000000000
      4599        40  POPC      H18S           49.2552630518       47.7963219496       44.1867093301  MEMB      34              0.0000000000
      4600        40  POPC      H18T           47.6403440930       48.2782119471       43.5557045106  MEMB      34              0.0000000000
      4601        40  POPC      C33            48.2616218331       52.0778851899       56.4823522125  MEMB      34              0.0000000000
      4602        40  POPC      H3X            49.1529529760       52.6744026556       56.7803128604  MEMB      34              0.0000000000
      4603        40  POPC      H3Y            47.7408087484       51.8335061895       57.4374530884  MEMB      34              0.0000000000
      4604        40  POPC      C34            47.2877557370       52.9973592403       55.7135920049  MEMB      34              0.0000000000
      4605        40  POPC      H4X            47.3856568881       54.0263580044       56.1332398994  MEMB      34              0.0000000000
      4606        40  POPC      H4Y            46.2525737891       52.6721964702       55.9557378334  MEMB      34              0.0000000000
      4607        40  POPC      C35            47.4378430767       53.0473136780       54.1834774942  MEMB      34              0.0000000000
      4608        40  POPC      H5X            47.7633154261       52.0725321491       53.7728162350  MEMB      34              0.0000000000
      4609        40  POPC      H5Y            48.2205804161       53.7903887317       53.9205651328  MEMB      34              0.0000000000
      4610        40  POPC      C36            46.1026226474       53.3658304465       53.4951730759  MEMB      34              0.0000000000
      4611        40  POPC      H6X            45.7694284855       54.3794787643       53.8030249564  MEMB      34              0.0000000000
      4612        40  POPC      H6Y            45.3296047332       52.6544201024       53.8726770593  MEMB      34              0.0000000000
      4613        40  POPC      C37            46.0927982422       53.2490757399       51.9586260336  MEMB      34              0.0000000000
      4614        40  POPC      H7X            45.4282726012       54.0515075873       51.5606093360  MEMB      34              0.0000000000
      4615        40  POPC      H7Y            45.6281161498       52.2725798328       51.6868012908  MEMB      34              0.0000000000
      4616        40  POPC      C38            47.4467988382       53.3368460862       51.2289027363  MEMB      34              0.0000000000
      4617        40  POPC      H8X            48.1343735312       52.5357180389       51.5801157454  MEMB      34              0.0000000000
      4618        40  POPC      H8Y            47.9251477004       54.3089674318       51.4577738487  MEMB      34              0.0000000000
      4619        40  POPC      C39            47.2286876684       53.1469603695       49.7154079944  MEMB      34              0.0000000000
      4620        40  POPC      H9X            46.2341512895       53.5807320922       49.4635326225  MEMB      34              0.0000000000
      4621        40  POPC      H9Y            47.1531941776       52.0550950728       49.5212905890  MEMB      34              0.0000000000
      4622        40  POPC      C310           48.2434733360       53.7852474909       48.7406887445  MEMB      34              0.0000000000
      4623        40  POPC      H10X           47.8574058129       54.7802031945       48.4593226685  MEMB      34              0.0000000000
      4624        40  POPC      H10Y           48.2769670916       53.1852717596       47.8057230455  MEMB      34              0.0000000000
      4625        40  POPC      C311           49.6705051456       53.9876955198       49.2499744956  MEMB      34              0.0000000000
      4626        40  POPC      H11X           50.0658375198       53.0272865241       49.6294857259  MEMB      34              0.0000000000
      4627        40  POPC      H11Y           49.6367746064       54.6905566966       50.1130352180  MEMB      34              0.0000000000
      4628        40  POPC      C312           50.6152764764       54.5920149868       48.1911295109  MEMB      34              0.0000000000
      4629        40  POPC      H12X           51.4080419520       55.1303211014       48.7630649520  MEMB      34              0.0000000000
      4630        40  POPC      H12Y           50.0773229518       55.3395428127       47.5691073148  MEMB      34              0.0000000000
      4631        40  POPC      C313           51.3617109869       53.5771356262       47.3091976863  MEMB      34              0.0000000000
      4632        40  POPC      H13X           51.2426223059       52.5590746501       47.7302153399  MEMB      34              0.0000000000
      4633        40  POPC      H13Y           52.4472282648       53.8353401068       47.3391912513  MEMB      34              0.0000000000
      4634        40  POPC      C314           50.9431352651       53.5296633201       45.8380471889  MEMB      34              0.0000000000
      4635        40  POPC      H14X           50.8890940161       54.5607642228       45.4397086718  MEMB      34              0.0000000000
      4636        40  POPC      H14Y           49.9239349062       53.0875087191       45.7692783599  MEMB      34              0.0000000000
      4637        40  POPC      C315           51.9298745646       52.7145025080       44.9831652296  MEMB      34              0.0000000000
      4638        40  POPC      H15X           52.9446053161       53.1688061975       45.0366554125  MEMB      34              0.0000000000
      4639        40  POPC      H15Y           51.6094429097       52.7703894090       43.9199230205  MEMB      34              0.0000000000
      4640        40  POPC      C316           52.0075710340       51.2457757329       45.4055955120  MEMB      34              0.0000000000
      4641        40  POPC      H16X           50.9785217152       50.8581784919       45.5318810412  MEMB      34              0.0000000000
      4642        40  POPC      H16Y           52.5338958309       51.1316061912       46.3756795420  MEMB      34              0.0000000000
      4643        40  POPC      H16Z           52.5179827417       50.6237506105       44.6440150085  MEMB      34              0.0000000000
      4644        41  POPS      N              18.6420613855        9.8518843179       63.6413110465  MEMB      35              0.0000000000
      4645        41  POPS      HN1            17.6756790491        9.8671956651       63.2528308722  MEMB      35              0.0000000000
      4646        41  POPS      HN2            18.6380530763       10.0523518892       64.6661551794  MEMB      35              0.0000000000
      4647        41  POPS      HN3            19.2209193374       10.5534524909       63.1583619873  MEMB      35              0.0000000000
      4648        41  POPS      C12            19.2123176990        8.5070637340       63.3390340524  MEMB      35              0.0000000000
      4649        41  POPS      H12A           18.6502716285        7.7981791316       63.9237877667  MEMB      35              0.0000000000
      4650        41  POPS      C13            20.6908231981        8.3311660741       63.7649588298  MEMB      35              0.0000000000
      4651        41  POPS      O13A           21.2704428991        9.3164095110       64.3129410390  MEMB      35              0.0000000000
      4652        41  POPS      O13B           21.2377454516        7.2000128500       63.6008302802  MEMB      35              0.0000000000
      4653        41  POPS      C11            18.9315381903        8.2417404788       61.8270765967  MEMB      35              0.0000000000
      4654        41  POPS      H11A           19.1013458546        7.1613945697       61.6112076665  MEMB      35              0.0000000000
      4655        41  POPS      H11B           19.6434952515        8.8302214160       61.2024599432  MEMB      35              0.0000000000
      4656        41  POPS      P              17.0027336999        8.8209347630       60.0811057340  MEMB      35              0.0000000000
      4657        41  POPS      O13            15.7733953751        9.6397650872       60.2245450499  MEMB      35              0.0000000000
      4658        41  POPS      O14            16.9415665625        7.5130953083       59.4200497631  MEMB      35              0.0000000000
      4659        41  POPS      O12            17.5664906300        8.5811505328       61.5443886987  MEMB      35              0.0000000000
      4660        41  POPS      O11            18.1382512504        9.7126875075       59.4533891631  MEMB      35              0.0000000000
      4661        41  POPS      C1             18.0242232323       11.1414282671       59.3718303952  MEMB      35              0.0000000000
      4662        41  POPS      HA             19.0531717381       11.5666337409       59.3409246841  MEMB      35              0.0000000000
      4663        41  POPS      HB             17.5311906105       11.5754596170       60.2702731313  MEMB      35              0.0000000000
      4664        41  POPS      C2             17.2695011806       11.6629189314       58.0986019890  MEMB      35              0.0000000000
      4665        41  POPS      HS             16.3814386448       12.2353609923       58.4513621464  MEMB      35              0.0000000000
      4666        41  POPS      O21            16.8628943067       10.5387748816       57.2899113232  MEMB      35              0.0000000000
      4667        41  POPS      C21            15.9142924470       10.7767363522       56.4117468789  MEMB      35              0.0000000000
      4668        41  POPS      O22            15.2631585768       11.8109264757       56.3530639193  MEMB      35              0.0000000000
      4669        41  POPS      C22            15.8226827023        9.6051007302       55.4320099829  MEMB      35              0.0000000000
      4670        41  POPS      H2R            15.3104382233        8.7621521163       55.9130329355  MEMB      35              0.0000000000
      4671        41  POPS      H2S            16.8572258182        9.2866872071       55.2284106787  MEMB      35              0.0000000000
      4672        41  POPS      C3             18.1829089905       12.6419060283       57.2872954823  MEMB      35              0.0000000000
      4673        41  POPS      HX             18.4245325669       13.5218479636       57.9262460849  MEMB      35              0.0000000000
      4674        41  POPS      HY             17.6570134273       13.0397724029       56.3893039227  MEMB      35              0.0000000000
      4675        41  POPS      O31            19.4181332078       11.9788480527       56.9606635032  MEMB      35              0.0000000000
      4676        41  POPS      C31            19.3070053084       11.1454768744       55.9411099552  MEMB      35              0.0000000000
      4677        41  POPS      O32            18.5181662276       11.2617579323       55.0195121499  MEMB      35              0.0000000000
      4678        41  POPS      C32            20.2969700307        9.9941242896       56.1156278799  MEMB      35              0.0000000000
      4679        41  POPS      H2X            20.8086199795       10.1512458661       57.0921534437  MEMB      35              0.0000000000
      4680        41  POPS      H2Y            21.0406599132       10.0709800609       55.3002887582  MEMB      35              0.0000000000
      4681        41  POPS      C23            15.1552354988       10.0039163957       54.1009860012  MEMB      35              0.0000000000
      4682        41  POPS      H3R            15.5664111898       10.9969375129       53.7977610602  MEMB      35              0.0000000000
      4683        41  POPS      H3S            14.0575979016       10.1192774851       54.2458721062  MEMB      35              0.0000000000
      4684        41  POPS      C24            15.4260591817        9.0531631968       52.9217359285  MEMB      35              0.0000000000
      4685        41  POPS      H4R            15.0692714565        8.0294399864       53.1712179609  MEMB      35              0.0000000000
      4686        41  POPS      H4S            16.5215823312        8.9995805318       52.7311672844  MEMB      35              0.0000000000
      4687        41  POPS      C25            14.7036153075        9.5598425970       51.6620756229  MEMB      35              0.0000000000
      4688        41  POPS      H5R            15.0608991849       10.5839915423       51.4172767193  MEMB      35              0.0000000000
      4689        41  POPS      H5S            13.6175252239        9.6246041549       51.9102142429  MEMB      35              0.0000000000
      4690        41  POPS      C26            14.8437604888        8.7003109016       50.4044293592  MEMB      35              0.0000000000
      4691        41  POPS      H6R            13.9263042573        8.8640215978       49.7920406782  MEMB      35              0.0000000000
      4692        41  POPS      H6S            14.8861245688        7.6264606505       50.6855744404  MEMB      35              0.0000000000
      4693        41  POPS      C27            16.0384685452        9.0809313562       49.5200197605  MEMB      35              0.0000000000
      4694        41  POPS      H7R            16.9779301683        8.8352635233       50.0611153800  MEMB      35              0.0000000000
      4695        41  POPS      H7S            16.0304550074       10.1833871456       49.3580980893  MEMB      35              0.0000000000
      4696        41  POPS      C28            16.0183140222        8.4010087295       48.1316073944  MEMB      35              0.0000000000
      4697        41  POPS      H8R            17.0150624420        8.5340575142       47.6624658686  MEMB      35              0.0000000000
      4698        41  POPS      H8S            15.2954817884        8.9513976465       47.4879086206  MEMB      35              0.0000000000
      4699        41  POPS      C29            15.6588593035        6.9373979320       48.1298324257  MEMB      35              0.0000000000
      4700        41  POPS      H91            14.6785619765        6.7025920011       47.6884294166  MEMB      35              0.0000000000
      4701        41  POPS      C210           16.4265097245        5.9235569494       48.5639320532  MEMB      35              0.0000000000
      4702        41  POPS      H101           16.0520221349        4.8940912608       48.4530879661  MEMB      35              0.0000000000
      4703        41  POPS      C211           17.8127278377        6.0417744227       49.1422850525  MEMB      35              0.0000000000
      4704        41  POPS      H11R           17.8444864121        5.5235660264       50.1260452578  MEMB      35              0.0000000000
      4705        41  POPS      H11S           18.0909261277        7.1008355210       49.3378538347  MEMB      35              0.0000000000
      4706        41  POPS      C212           18.9039783956        5.4386502281       48.2290002462  MEMB      35              0.0000000000
      4707        41  POPS      H12R           18.6767005151        4.3759200345       48.0005313762  MEMB      35              0.0000000000
      4708        41  POPS      H12S           19.8593095387        5.4722955162       48.8024027009  MEMB      35              0.0000000000
      4709        41  POPS      C213           19.1649757767        6.2169545983       46.9310277252  MEMB      35              0.0000000000
      4710        41  POPS      H13R           20.2174673362        6.0625130052       46.6020715699  MEMB      35              0.0000000000
      4711        41  POPS      H13S           19.0570913473        7.3004317976       47.1621262211  MEMB      35              0.0000000000
      4712        41  POPS      C214           18.2389152681        5.8292874193       45.7691208772  MEMB      35              0.0000000000
      4713        41  POPS      H14R           17.2607468699        5.4874727489       46.1638465134  MEMB      35              0.0000000000
      4714        41  POPS      H14S           18.6629865318        4.9800165534       45.1933608467  MEMB      35              0.0000000000
      4715        41  POPS      C215           17.9687267981        7.0301329711       44.8647253116  MEMB      35              0.0000000000
      4716        41  POPS      H15R           18.8878696505        7.2800440009       44.2939298762  MEMB      35              0.0000000000
      4717        41  POPS      H15S           17.7363423269        7.8938124468       45.5296673764  MEMB      35              0.0000000000
      4718        41  POPS      C216           16.7607432400        6.8598827174       43.9372888472  MEMB      35              0.0000000000
      4719        41  POPS      H16R           16.4985764123        7.8464325542       43.4923661810  MEMB      35              0.0000000000
      4720        41  POPS      H16S           15.8938802693        6.5449656881       44.5536225214  MEMB      35              0.0000000000
      4721        41  POPS      C217           16.9823711795        5.8669427405       42.7952564167  MEMB      35              0.0000000000
      4722        41  POPS      H17R           16.0632555587        5.8329257461       42.1781235591  MEMB      35              0.0000000000
      4723        41  POPS      H17S           17.1474964938        4.8482513301       43.2066266292  MEMB      35              0.0000000000
      4724        41  POPS      C218           18.1426040113        6.2340461313       41.8833116809  MEMB      35              0.0000000000
      4725        41  POPS      H18R           18.0465102584        5.7195002460       40.9024124038  MEMB      35              0.0000000000
      4726        41  POPS      H18S           19.1030080810        5.9484687321       42.3520355341  MEMB      35              0.0000000000
      4727        41  POPS      H18T           18.1754061970        7.3271938034       41.7204035908  MEMB      35              0.0000000000
      4728        41  POPS      C33            19.6619735822        8.5742767470       56.1474842631  MEMB      35              0.0000000000
      4729        41  POPS      H3X            18.8242428085        8.5700843342       56.8863679903  MEMB      35              0.0000000000
      4730        41  POPS      H3Y            20.4234442378        7.8573551857       56.5298904608  MEMB      35              0.0000000000
      4731        41  POPS      C34            19.1615784515        8.0374280840       54.7925344404  MEMB      35              0.0000000000
      4732        41  POPS      H4X            18.5308759308        8.8099920586       54.3046626653  MEMB      35              0.0000000000
      4733        41  POPS      H4Y            18.5311578849        7.1371167812       54.9724735125  MEMB      35              0.0000000000
      4734        41  POPS      C35            20.2529514026        7.6825952596       53.7784824762  MEMB      35              0.0000000000
      4735        41  POPS      H5X            20.8572975699        6.8217319539       54.1291041985  MEMB      35              0.0000000000
      4736        41  POPS      H5Y            20.9210449671        8.5657463422       53.7132782577  MEMB      35              0.0000000000
      4737        41  POPS      C36            19.6702393663        7.3899964189       52.3838905048  MEMB      35              0.0000000000
      4738        41  POPS      H6X            19.0294871033        8.2501661132       52.0824797686  MEMB      35              0.0000000000
      4739        41  POPS      H6Y            19.0066084553        6.4969265247       52.4329413094  MEMB      35              0.0000000000
      4740        41  POPS      C37            20.7228825805        7.1732133129       51.2802631631  MEMB      35              0.0000000000
      4741        41  POPS      H7X            20.2232477018        7.2617008244       50.2895539817  MEMB      35              0.0000000000
      4742        41  POPS      H7Y            21.1052118132        6.1386227250       51.3707401827  MEMB      35              0.0000000000
      4743        41  POPS      C38            21.9306606286        8.1243581009       51.3307124698  MEMB      35              0.0000000000
      4744        41  POPS      H8X            22.6499809779        7.8565661094       50.5234765015  MEMB      35              0.0000000000
      4745        41  POPS      H8Y            22.4631475977        7.9602560397       52.2917657594  MEMB      35              0.0000000000
      4746        41  POPS      C39            21.5415874267        9.6020155065       51.1757690335  MEMB      35              0.0000000000
      4747        41  POPS      H9X            22.3077610851       10.2778055810       51.6127002428  MEMB      35              0.0000000000
      4748        41  POPS      H9Y            20.5899923317        9.8148712489       51.7102041302  MEMB      35              0.0000000000
      4749        41  POPS      C310           21.4050261398        9.9465364558       49.6985730962  MEMB      35              0.0000000000
      4750        41  POPS      H10X           20.8699951784        9.1125236955       49.1903277893  MEMB      35              0.0000000000
      4751        41  POPS      H10Y           22.4174419910       10.0213684135       49.2395879889  MEMB      35              0.0000000000
      4752        41  POPS      C311           20.6337255755       11.2330129194       49.4304158101  MEMB      35              0.0000000000
      4753        41  POPS      H11X           21.2912568344       12.1032205950       49.6549920074  MEMB      35              0.0000000000
      4754        41  POPS      H11Y           19.7336424898       11.3064731836       50.0819125720  MEMB      35              0.0000000000
      4755        41  POPS      C312           20.2095839876       11.2510594643       47.9651721148  MEMB      35              0.0000000000
      4756        41  POPS      H12X           20.9935935274       10.7447144525       47.3643864073  MEMB      35              0.0000000000
      4757        41  POPS      H12Y           20.1557062167       12.2886908198       47.6094354808  MEMB      35              0.0000000000
      4758        41  POPS      C313           18.8532958596       10.5849333145       47.7265294874  MEMB      35              0.0000000000
      4759        41  POPS      H13X           18.0872049319       11.0487584615       48.3876292646  MEMB      35              0.0000000000
      4760        41  POPS      H13Y           18.9357754243        9.5116021042       48.0099605532  MEMB      35              0.0000000000
      4761        41  POPS      C314           18.3935359406       10.6939060965       46.2676348449  MEMB      35              0.0000000000
      4762        41  POPS      H14X           18.1722347997       11.7565509921       46.0255341994  MEMB      35              0.0000000000
      4763        41  POPS      H14Y           17.4470216987       10.1218433137       46.1461234007  MEMB      35              0.0000000000
      4764        41  POPS      C315           19.4328152118       10.1599777560       45.2745377339  MEMB      35              0.0000000000
      4765        41  POPS      H15X           19.7786887823        9.1594488599       45.6238431519  MEMB      35              0.0000000000
      4766        41  POPS      H15Y           20.3222286915       10.8308020027       45.2611439238  MEMB      35              0.0000000000
      4767        41  POPS      C316           18.8847839670       10.0439434539       43.8552028529  MEMB      35              0.0000000000
      4768        41  POPS      H16X           17.9731515032        9.4167632085       43.8295438421  MEMB      35              0.0000000000
      4769        41  POPS      H16Y           19.6418397271        9.5921914600       43.1773662045  MEMB      35              0.0000000000
      4770        41  POPS      H16Z           18.5979830742       11.0454150222       43.4784232728  MEMB      35              0.0000000000
      4771        42  POPC      N              22.7209740194       60.5789843790       60.4357562042  MEMB      36              0.0000000000
      4772        42  POPC      C12            23.0503864024       59.3911704727       61.3236684332  MEMB      36              0.0000000000
      4773        42  POPC      H12A           24.0527779312       59.0413112985       61.1355586863  MEMB      36              0.0000000000
      4774        42  POPC      H12B           22.4199729016       58.5398892365       61.0737625852  MEMB      36              0.0000000000
      4775        42  POPC      C13            21.3702342268       61.1138457330       60.8220859988  MEMB      36              0.0000000000
      4776        42  POPC      H13A           20.5761414282       60.5586683965       60.3349814094  MEMB      36              0.0000000000
      4777        42  POPC      H13B           21.2235977275       60.9528154742       61.8923171439  MEMB      36              0.0000000000
      4778        42  POPC      H13C           21.2605483900       62.1607451399       60.6034939494  MEMB      36              0.0000000000
      4779        42  POPC      C14            23.7234960563       61.6628222799       60.6734461859  MEMB      36              0.0000000000
      4780        42  POPC      H14A           23.6989682668       61.9557167623       61.7169835943  MEMB      36              0.0000000000
      4781        42  POPC      H14B           24.7217131583       61.3301058349       60.4207299867  MEMB      36              0.0000000000
      4782        42  POPC      H14C           23.4903577616       62.5357353338       60.0724155115  MEMB      36              0.0000000000
      4783        42  POPC      C15            22.6441605686       60.2379184654       58.9787028141  MEMB      36              0.0000000000
      4784        42  POPC      H15A           22.3398990808       61.1151169078       58.4205750188  MEMB      36              0.0000000000
      4785        42  POPC      H15B           21.8903228076       59.4745842604       58.8088896878  MEMB      36              0.0000000000
      4786        42  POPC      H15C           23.5848958710       59.9083899076       58.5630735357  MEMB      36              0.0000000000
      4787        42  POPC      C11            22.8404340466       59.5699690805       62.8475196243  MEMB      36              0.0000000000
      4788        42  POPC      H11A           23.1628910491       60.5810828020       63.1753361374  MEMB      36              0.0000000000
      4789        42  POPC      H11B           23.4939516653       58.8456710087       63.3990361475  MEMB      36              0.0000000000
      4790        42  POPC      P              20.9327835582       57.9212575529       63.4384106491  MEMB      36              0.0000000000
      4791        42  POPC      O13            19.4671089435       57.8463034108       63.2309233868  MEMB      36              0.0000000000
      4792        42  POPC      O14            21.3638128114       57.5467788483       64.7986541270  MEMB      36              0.0000000000
      4793        42  POPC      O12            21.4514640418       59.3964929757       63.1628266262  MEMB      36              0.0000000000
      4794        42  POPC      O11            21.6724031728       57.0752654362       62.3345691046  MEMB      36              0.0000000000
      4795        42  POPC      C1             21.1936203347       56.8233118341       61.0234185175  MEMB      36              0.0000000000
      4796        42  POPC      HA             21.0181662163       57.7584196764       60.4463114848  MEMB      36              0.0000000000
      4797        42  POPC      HB             20.2471424497       56.2360680130       61.0555058762  MEMB      36              0.0000000000
      4798        42  POPC      C2             22.2982065387       55.9851332991       60.3571057528  MEMB      36              0.0000000000
      4799        42  POPC      HS             22.3766473267       55.0906625769       61.0324958404  MEMB      36              0.0000000000
      4800        42  POPC      O21            23.5288421794       56.7525226701       60.2943152769  MEMB      36              0.0000000000
      4801        42  POPC      C21            24.5850696947       55.9480627762       60.4182120168  MEMB      36              0.0000000000
      4802        42  POPC      O22            24.5343325020       54.7433765397       60.5441706362  MEMB      36              0.0000000000
      4803        42  POPC      C22            25.8695534088       56.7559111600       60.5068066899  MEMB      36              0.0000000000
      4804        42  POPC      H2R            26.6250787695       56.1247461191       61.0260695809  MEMB      36              0.0000000000
      4805        42  POPC      H2S            25.6646076815       57.6428362953       61.1386002948  MEMB      36              0.0000000000
      4806        42  POPC      C3             21.9404684508       55.4769164755       58.9407666486  MEMB      36              0.0000000000
      4807        42  POPC      HX             20.9736687618       54.9473509630       59.0486491804  MEMB      36              0.0000000000
      4808        42  POPC      HY             22.7069050956       54.7029488729       58.6861028614  MEMB      36              0.0000000000
      4809        42  POPC      O31            21.7650735941       56.5125855065       57.9394415951  MEMB      36              0.0000000000
      4810        42  POPC      C31            22.5820471021       56.4310386574       56.8755814195  MEMB      36              0.0000000000
      4811        42  POPC      O32            23.5564949553       55.7147518248       56.7999568710  MEMB      36              0.0000000000
      4812        42  POPC      C32            22.0200731489       57.3327568682       55.7761796854  MEMB      36              0.0000000000
      4813        42  POPC      H2X            22.3029307478       58.3779107118       56.0055303402  MEMB      36              0.0000000000
      4814        42  POPC      H2Y            20.9247961807       57.2267351947       55.8394985938  MEMB      36              0.0000000000
      4815        42  POPC      C23            26.4515552115       57.1882994108       59.1422927155  MEMB      36              0.0000000000
      4816        42  POPC      H3R            25.7274906927       57.0950553897       58.3043747678  MEMB      36              0.0000000000
      4817        42  POPC      H3S            27.3004948987       56.4986817995       58.9001940595  MEMB      36              0.0000000000
      4818        42  POPC      C24            26.9849335500       58.6223453564       59.2368284106  MEMB      36              0.0000000000
      4819        42  POPC      H4R            27.8554312699       58.7242693226       58.5693829646  MEMB      36              0.0000000000
      4820        42  POPC      H4S            27.3538325171       58.7895936149       60.2719803636  MEMB      36              0.0000000000
      4821        42  POPC      C25            26.0224142176       59.7487624093       58.8511442833  MEMB      36              0.0000000000
      4822        42  POPC      H5R            26.5480426106       60.7163438299       59.0526879464  MEMB      36              0.0000000000
      4823        42  POPC      H5S            25.1432528730       59.6807963206       59.5160439750  MEMB      36              0.0000000000
      4824        42  POPC      C26            25.6033225650       59.7577400324       57.3690849582  MEMB      36              0.0000000000
      4825        42  POPC      H6R            25.0928067975       60.7251260513       57.1553621119  MEMB      36              0.0000000000
      4826        42  POPC      H6S            24.8833416674       58.9348263519       57.1651487662  MEMB      36              0.0000000000
      4827        42  POPC      C27            26.7929448647       59.6151424798       56.4067511954  MEMB      36              0.0000000000
      4828        42  POPC      H7R            27.1694926726       58.5679588964       56.4404443567  MEMB      36              0.0000000000
      4829        42  POPC      H7S            27.6076119796       60.2854252443       56.7701678051  MEMB      36              0.0000000000
      4830        42  POPC      C28            26.5031290594       59.9967736005       54.9436962422  MEMB      36              0.0000000000
      4831        42  POPC      H8R            27.4735872494       59.9650892734       54.3970994015  MEMB      36              0.0000000000
      4832        42  POPC      H8S            26.1591804653       61.0552067016       54.9285363747  MEMB      36              0.0000000000
      4833        42  POPC      C29            25.5317959410       59.0804616671       54.2456909392  MEMB      36              0.0000000000
      4834        42  POPC      H91            25.4806054526       58.0505048598       54.6376599539  MEMB      36              0.0000000000
      4835        42  POPC      C210           24.7780859931       59.4190651443       53.1851746713  MEMB      36              0.0000000000
      4836        42  POPC      H101           24.1595112124       58.6454870615       52.7061100745  MEMB      36              0.0000000000
      4837        42  POPC      C211           24.7521415113       60.7570598368       52.4895012988  MEMB      36              0.0000000000
      4838        42  POPC      H11R           25.4285030230       61.4969203495       52.9709747177  MEMB      36              0.0000000000
      4839        42  POPC      H11S           23.7283888781       61.1942322580       52.5213375932  MEMB      36              0.0000000000
      4840        42  POPC      C212           25.1928355854       60.6079590922       51.0227909107  MEMB      36              0.0000000000
      4841        42  POPC      H12R           26.1907085372       60.1172240890       50.9738535433  MEMB      36              0.0000000000
      4842        42  POPC      H12S           25.3059185510       61.6220286444       50.5833347100  MEMB      36              0.0000000000
      4843        42  POPC      C213           24.2213137895       59.7930632396       50.1688294084  MEMB      36              0.0000000000
      4844        42  POPC      H13R           23.2506378143       59.7145821594       50.7068624318  MEMB      36              0.0000000000
      4845        42  POPC      H13S           24.6339530513       58.7648671126       50.0650550747  MEMB      36              0.0000000000
      4846        42  POPC      C214           23.9352146514       60.3847582960       48.7822361470  MEMB      36              0.0000000000
      4847        42  POPC      H14R           23.3864783966       61.3434767537       48.8832497824  MEMB      36              0.0000000000
      4848        42  POPC      H14S           23.2453787745       59.6834990643       48.2728767067  MEMB      36              0.0000000000
      4849        42  POPC      C215           25.1638034700       60.5866880672       47.8818132121  MEMB      36              0.0000000000
      4850        42  POPC      H15R           25.7872333591       59.6647709127       47.8975252316  MEMB      36              0.0000000000
      4851        42  POPC      H15S           25.7814759848       61.4278165488       48.2670426615  MEMB      36              0.0000000000
      4852        42  POPC      C216           24.7319312087       60.8695676983       46.4356770918  MEMB      36              0.0000000000
      4853        42  POPC      H16R           24.0952618953       61.7813331087       46.4121150897  MEMB      36              0.0000000000
      4854        42  POPC      H16S           24.0999894107       60.0220969800       46.0925043629  MEMB      36              0.0000000000
      4855        42  POPC      C217           25.8812808196       61.0260354305       45.4335728341  MEMB      36              0.0000000000
      4856        42  POPC      H17R           26.5264975147       60.1184084447       45.4708020657  MEMB      36              0.0000000000
      4857        42  POPC      H17S           26.5093531399       61.8987726959       45.7232920970  MEMB      36              0.0000000000
      4858        42  POPC      C218           25.3564755818       61.2168780779       44.0083855806  MEMB      36              0.0000000000
      4859        42  POPC      H18R           24.7116250365       62.1197709844       43.9571013810  MEMB      36              0.0000000000
      4860        42  POPC      H18S           24.7428032155       60.3402456754       43.7047473454  MEMB      36              0.0000000000
      4861        42  POPC      H18T           26.1873508537       61.3335965160       43.2799460834  MEMB      36              0.0000000000
      4862        42  POPC      C33            22.3281396006       56.9627591228       54.3037086003  MEMB      36              0.0000000000
      4863        42  POPC      H3X            22.0630636989       55.8954424534       54.1417249108  MEMB      36              0.0000000000
      4864        42  POPC      H3Y            23.4071794341       57.0889004187       54.0817029543  MEMB      36              0.0000000000
      4865        42  POPC      C34            21.4697915765       57.8311195331       53.3603283058  MEMB      36              0.0000000000
      4866        42  POPC      H4X            21.7614615663       58.8965042231       53.4968107641  MEMB      36              0.0000000000
      4867        42  POPC      H4Y            20.4084555486       57.7546830280       53.6948100045  MEMB      36              0.0000000000
      4868        42  POPC      C35            21.4788985817       57.5085897957       51.8472411497  MEMB      36              0.0000000000
      4869        42  POPC      H5X            21.5822379931       58.4611629433       51.2829278949  MEMB      36              0.0000000000
      4870        42  POPC      H5Y            20.4769348263       57.1083694072       51.5751432294  MEMB      36              0.0000000000
      4871        42  POPC      C36            22.5217271773       56.5048419975       51.3344852093  MEMB      36              0.0000000000
      4872        42  POPC      H6X            22.5111270501       55.6076136763       51.9845634679  MEMB      36              0.0000000000
      4873        42  POPC      H6Y            23.5440382063       56.9383019674       51.3730310366  MEMB      36              0.0000000000
      4874        42  POPC      C37            22.2099796573       56.0269711906       49.9048826120  MEMB      36              0.0000000000
      4875        42  POPC      H7X            21.1267206527       55.7759957332       49.8274295418  MEMB      36              0.0000000000
      4876        42  POPC      H7Y            22.7821855757       55.0970802716       49.6895867166  MEMB      36              0.0000000000
      4877        42  POPC      C38            22.5537508866       57.0560727200       48.8198308706  MEMB      36              0.0000000000
      4878        42  POPC      H8X            23.6348616008       57.3075725286       48.8668338261  MEMB      36              0.0000000000
      4879        42  POPC      H8Y            21.9657767652       57.9821148562       49.0049018719  MEMB      36              0.0000000000
      4880        42  POPC      C39            22.2346461919       56.5326495518       47.4160126074  MEMB      36              0.0000000000
      4881        42  POPC      H9X            21.1896224289       56.1659196255       47.4525704762  MEMB      36              0.0000000000
      4882        42  POPC      H9Y            22.8838620049       55.6589251006       47.1932330900  MEMB      36              0.0000000000
      4883        42  POPC      C310           22.3373473307       57.5825699204       46.2975414270  MEMB      36              0.0000000000
      4884        42  POPC      H10X           22.6326331894       58.5525486902       46.7382646847  MEMB      36              0.0000000000
      4885        42  POPC      H10Y           21.3236892323       57.7523066864       45.8743474877  MEMB      36              0.0000000000
      4886        42  POPC      C311           23.3372811385       57.2280971063       45.1774917325  MEMB      36              0.0000000000
      4887        42  POPC      H11X           24.0040289378       56.4027003927       45.5079839544  MEMB      36              0.0000000000
      4888        42  POPC      H11Y           23.9933392199       58.1088039542       44.9957275258  MEMB      36              0.0000000000
      4889        42  POPC      C312           22.6488623706       56.8578439907       43.8533538605  MEMB      36              0.0000000000
      4890        42  POPC      H12X           22.9666547430       57.5522631127       43.0442985131  MEMB      36              0.0000000000
      4891        42  POPC      H12Y           21.5581089520       57.0118234858       43.9816706125  MEMB      36              0.0000000000
      4892        42  POPC      C313           22.9016294114       55.4067095394       43.4139577302  MEMB      36              0.0000000000
      4893        42  POPC      H13X           22.8320287670       54.7439647806       44.3060315287  MEMB      36              0.0000000000
      4894        42  POPC      H13Y           23.9386970223       55.3224768017       43.0204782844  MEMB      36              0.0000000000
      4895        42  POPC      C314           21.8810066599       54.9012920290       42.3751084372  MEMB      36              0.0000000000
      4896        42  POPC      H14X           22.2038582982       53.9068623805       42.0001284796  MEMB      36              0.0000000000
      4897        42  POPC      H14Y           21.8734303340       55.5965298765       41.5099092911  MEMB      36              0.0000000000
      4898        42  POPC      C315           20.4781340405       54.7617272059       42.9941894617  MEMB      36              0.0000000000
      4899        42  POPC      H15X           20.1010190432       55.7741262374       43.2566974664  MEMB      36              0.0000000000
      4900        42  POPC      H15Y           20.6045130477       54.1903756395       43.9383638275  MEMB      36              0.0000000000
      4901        42  POPC      C316           19.3910886969       54.0594019415       42.1794646323  MEMB      36              0.0000000000
      4902        42  POPC      H16X           19.7361870553       53.8539855815       41.1483111842  MEMB      36              0.0000000000
      4903        42  POPC      H16Y           18.4842551663       54.6989524540       42.1284666237  MEMB      36              0.0000000000
      4904        42  POPC      H16Z           19.0997286814       53.0976095526       42.6521051177  MEMB      36              0.0000000000
      4905        43  POPC      N              43.6111012955       57.9533833075       63.6890616914  MEMB      37              0.0000000000
      4906        43  POPC      C12            44.9725811882       57.7628635028       63.0281305210  MEMB      37              0.0000000000
      4907        43  POPC      H12A           45.3531925981       56.7791536722       63.2565678257  MEMB      37              0.0000000000
      4908        43  POPC      H12B           45.6753439681       58.4948752024       63.4347271574  MEMB      37              0.0000000000
      4909        43  POPC      C13            42.6282287009       56.9293996021       63.2095548333  MEMB      37              0.0000000000
      4910        43  POPC      H13A           41.7249925901       56.9705683826       63.8081814815  MEMB      37              0.0000000000
      4911        43  POPC      H13B           42.3439887618       57.1512265582       62.1839402488  MEMB      37              0.0000000000
      4912        43  POPC      H13C           43.0380545891       55.9317606828       63.2705393448  MEMB      37              0.0000000000
      4913        43  POPC      C14            43.7304293509       57.8645724582       65.1786991977  MEMB      37              0.0000000000
      4914        43  POPC      H14A           42.7517439439       57.9351287406       65.6344386999  MEMB      37              0.0000000000
      4915        43  POPC      H14B           44.1432257821       56.9188771159       65.4829213229  MEMB      37              0.0000000000
      4916        43  POPC      H14C           44.3531272640       58.6580089397       65.5972945973  MEMB      37              0.0000000000
      4917        43  POPC      C15            43.0500782968       59.2979363360       63.3170337618  MEMB      37              0.0000000000
      4918        43  POPC      H15A           42.0334534415       59.4399147234       63.6341567601  MEMB      37              0.0000000000
      4919        43  POPC      H15B           43.0739919381       59.3971451221       62.2242004737  MEMB      37              0.0000000000
      4920        43  POPC      H15C           43.6964483918       60.0892098494       63.6686157748  MEMB      37              0.0000000000
      4921        43  POPC      C11            45.0332744670       57.9464465011       61.5012742420  MEMB      37              0.0000000000
      4922        43  POPC      H11A           44.2901236892       57.2748456471       61.0084193124  MEMB      37              0.0000000000
      4923        43  POPC      H11B           46.0441305074       57.6543698249       61.1334080681  MEMB      37              0.0000000000
      4924        43  POPC      P              44.3503069627       59.8055972287       59.7923026142  MEMB      37              0.0000000000
      4925        43  POPC      O13            45.0961430972       61.0570988543       59.5417438592  MEMB      37              0.0000000000
      4926        43  POPC      O14            42.8726794291       59.8525731853       59.8690106710  MEMB      37              0.0000000000
      4927        43  POPC      O12            44.8108497702       59.3181692762       61.2108863263  MEMB      37              0.0000000000
      4928        43  POPC      O11            44.8315661421       58.5672085425       58.9296008503  MEMB      37              0.0000000000
      4929        43  POPC      C1             45.8440115032       58.7076547273       57.9439498032  MEMB      37              0.0000000000
      4930        43  POPC      HA             46.1592512975       57.6938784653       57.6086773234  MEMB      37              0.0000000000
      4931        43  POPC      HB             46.7442060974       59.2267499179       58.3437901800  MEMB      37              0.0000000000
      4932        43  POPC      C2             45.2662259663       59.4432197125       56.7248485789  MEMB      37              0.0000000000
      4933        43  POPC      HS             45.1271406621       60.5084110803       57.0408207709  MEMB      37              0.0000000000
      4934        43  POPC      O21            44.0092617855       58.8059175670       56.4146675668  MEMB      37              0.0000000000
      4935        43  POPC      C21            43.1606275039       59.5812299418       55.8039933768  MEMB      37              0.0000000000
      4936        43  POPC      O22            43.3279766847       60.7523600940       55.5002711526  MEMB      37              0.0000000000
      4937        43  POPC      C22            41.9516717419       58.7488420436       55.3983980791  MEMB      37              0.0000000000
      4938        43  POPC      H2R            41.2093730990       59.4418845793       54.9509296721  MEMB      37              0.0000000000
      4939        43  POPC      H2S            41.5260248334       58.2902559721       56.3129239191  MEMB      37              0.0000000000
      4940        43  POPC      C3             46.2217105179       59.4353835268       55.5017926757  MEMB      37              0.0000000000
      4941        43  POPC      HX             47.2434920814       59.6681046744       55.8815303100  MEMB      37              0.0000000000
      4942        43  POPC      HY             45.9135116161       60.2691448961       54.8326859940  MEMB      37              0.0000000000
      4943        43  POPC      O31            46.1390894861       58.1941909083       54.7651124839  MEMB      37              0.0000000000
      4944        43  POPC      C31            47.2707959252       57.7256237352       54.2638201595  MEMB      37              0.0000000000
      4945        43  POPC      O32            48.3949799553       58.0666352423       54.5712273824  MEMB      37              0.0000000000
      4946        43  POPC      C32            46.9655331371       56.8103942142       53.0700886206  MEMB      37              0.0000000000
      4947        43  POPC      H2X            45.9137935925       56.4880611133       53.1404926025  MEMB      37              0.0000000000
      4948        43  POPC      H2Y            47.6069613203       55.9140631301       53.1578271933  MEMB      37              0.0000000000
      4949        43  POPC      C23            42.3623036836       57.6647607962       54.3775262599  MEMB      37              0.0000000000
      4950        43  POPC      H3R            41.4660948951       57.0626217570       54.1021033506  MEMB      37              0.0000000000
      4951        43  POPC      H3S            43.1088494658       56.9687205714       54.8252321741  MEMB      37              0.0000000000
      4952        43  POPC      C24            42.9525209631       58.3126952348       53.1262917570  MEMB      37              0.0000000000
      4953        43  POPC      H4R            43.8876732271       58.8621224869       53.3828142799  MEMB      37              0.0000000000
      4954        43  POPC      H4S            42.2256946162       59.0683113203       52.7557472156  MEMB      37              0.0000000000
      4955        43  POPC      C25            43.2809087055       57.3183887229       52.0131718547  MEMB      37              0.0000000000
      4956        43  POPC      H5R            42.4044096456       56.6698388717       51.7997785315  MEMB      37              0.0000000000
      4957        43  POPC      H5S            44.1039328275       56.6554664234       52.3418634150  MEMB      37              0.0000000000
      4958        43  POPC      C26            43.6864622897       58.0627583563       50.7449915181  MEMB      37              0.0000000000
      4959        43  POPC      H6R            44.1872759020       57.3625184147       50.0449319251  MEMB      37              0.0000000000
      4960        43  POPC      H6S            44.4049178130       58.8706674070       51.0070774502  MEMB      37              0.0000000000
      4961        43  POPC      C27            42.4601135443       58.6238762889       50.0349802081  MEMB      37              0.0000000000
      4962        43  POPC      H7R            41.7237272766       59.0256024578       50.7627484175  MEMB      37              0.0000000000
      4963        43  POPC      H7S            41.9886446085       57.7588390984       49.5164470575  MEMB      37              0.0000000000
      4964        43  POPC      C28            42.7520690453       59.7085765958       48.9978302944  MEMB      37              0.0000000000
      4965        43  POPC      H8R            41.7871204118       59.9359539963       48.5102888063  MEMB      37              0.0000000000
      4966        43  POPC      H8S            43.3909146971       59.2345270364       48.2193184603  MEMB      37              0.0000000000
      4967        43  POPC      C29            43.3490539699       60.9719490433       49.5805994276  MEMB      37              0.0000000000
      4968        43  POPC      H91            42.9112933786       61.3291027265       50.5265121811  MEMB      37              0.0000000000
      4969        43  POPC      C210           44.3450034755       61.6610949327       48.9975765996  MEMB      37              0.0000000000
      4970        43  POPC      H101           44.7824879251       62.5506401177       49.4778043235  MEMB      37              0.0000000000
      4971        43  POPC      C211           44.9394413158       61.2133118639       47.6957199697  MEMB      37              0.0000000000
      4972        43  POPC      H11R           44.1199280491       60.8146158766       47.0550486475  MEMB      37              0.0000000000
      4973        43  POPC      H11S           45.6512459744       60.3765754217       47.8732454037  MEMB      37              0.0000000000
      4974        43  POPC      C212           45.6274203222       62.2648700454       46.8158400273  MEMB      37              0.0000000000
      4975        43  POPC      H12R           45.9451022798       61.6699149068       45.9314283987  MEMB      37              0.0000000000
      4976        43  POPC      H12S           46.5461910874       62.6809893086       47.2761896526  MEMB      37              0.0000000000
      4977        43  POPC      C213           44.6804122594       63.3638037890       46.3138674412  MEMB      37              0.0000000000
      4978        43  POPC      H13R           44.8446108145       64.3179731841       46.8561134664  MEMB      37              0.0000000000
      4979        43  POPC      H13S           43.6372362811       63.0296611324       46.5262517250  MEMB      37              0.0000000000
      4980        43  POPC      C214           44.7849199294       63.5676626375       44.7945650564  MEMB      37              0.0000000000
      4981        43  POPC      H14R           44.9585489200       62.5570347128       44.3598405584  MEMB      37              0.0000000000
      4982        43  POPC      H14S           45.6612990245       64.1934950294       44.5285555999  MEMB      37              0.0000000000
      4983        43  POPC      C215           43.4884125951       64.1329940817       44.1976738876  MEMB      37              0.0000000000
      4984        43  POPC      H15R           43.2993091892       65.1644041094       44.5658703311  MEMB      37              0.0000000000
      4985        43  POPC      H15S           42.6588714879       63.4844615600       44.5565971765  MEMB      37              0.0000000000
      4986        43  POPC      C216           43.4135824162       64.1096577243       42.6672179594  MEMB      37              0.0000000000
      4987        43  POPC      H16R           43.9092474083       64.9940669541       42.2272129690  MEMB      37              0.0000000000
      4988        43  POPC      H16S           42.3393944073       64.1666397157       42.3756114118  MEMB      37              0.0000000000
      4989        43  POPC      C217           43.9888820002       62.8316313497       42.0658568464  MEMB      37              0.0000000000
      4990        43  POPC      H17R           43.6564333056       61.9860539323       42.7037681792  MEMB      37              0.0000000000
      4991        43  POPC      H17S           45.1005897084       62.8345147695       42.1223577256  MEMB      37              0.0000000000
      4992        43  POPC      C218           43.4990371658       62.5890707080       40.6444302520  MEMB      37              0.0000000000
      4993        43  POPC      H18R           42.3937858860       62.6680143642       40.6138509919  MEMB      37              0.0000000000
      4994        43  POPC      H18S           43.7802029940       61.5692808341       40.3081634475  MEMB      37              0.0000000000
      4995        43  POPC      H18T           43.9080548036       63.3351345268       39.9357032189  MEMB      37              0.0000000000
      4996        43  POPC      C33            47.2394373681       57.5449313251       51.7257793324  MEMB      37              0.0000000000
      4997        43  POPC      H3X            48.3120981673       57.8425812794       51.6885609067  MEMB      37              0.0000000000
      4998        43  POPC      H3Y            46.6320612628       58.4783510436       51.7097617976  MEMB      37              0.0000000000
      4999        43  POPC      C34            46.9108225579       56.7553944291       50.4362724002  MEMB      37              0.0000000000
      5000        43  POPC      H4X            45.9825951741       56.1692979488       50.5967955882  MEMB      37              0.0000000000
      5001        43  POPC      H4Y            47.7399202484       56.0445253808       50.2459289855  MEMB      37              0.0000000000
      5002        43  POPC      C35            46.7393880985       57.6729683879       49.1987290527  MEMB      37              0.0000000000
      5003        43  POPC      H5X            47.6680800016       58.2779584897       49.1364926260  MEMB      37              0.0000000000
      5004        43  POPC      H5Y            45.9285187537       58.4030703333       49.3971140762  MEMB      37              0.0000000000
      5005        43  POPC      C36            46.4679479679       57.0073435154       47.8134005055  MEMB      37              0.0000000000
      5006        43  POPC      H6X            47.3611251532       56.4354565959       47.5006159592  MEMB      37              0.0000000000
      5007        43  POPC      H6Y            46.3605732401       57.8271910752       47.0660024569  MEMB      37              0.0000000000
      5008        43  POPC      C37            45.2011852917       56.1244772447       47.7044105067  MEMB      37              0.0000000000
      5009        43  POPC      H7X            44.3534599949       56.7570671657       47.3640228793  MEMB      37              0.0000000000
      5010        43  POPC      H7Y            44.9480209976       55.7766739560       48.7317227601  MEMB      37              0.0000000000
      5011        43  POPC      C38            45.2751976886       54.8306511215       46.8473553828  MEMB      37              0.0000000000
      5012        43  POPC      H8X            44.2731905444       54.3464326528       46.8569343426  MEMB      37              0.0000000000
      5013        43  POPC      H8Y            45.9583430751       54.1330415887       47.3782377287  MEMB      37              0.0000000000
      5014        43  POPC      C39            45.7801430228       54.8872939423       45.3877145110  MEMB      37              0.0000000000
      5015        43  POPC      H9X            46.2187726083       53.8784707936       45.1854747588  MEMB      37              0.0000000000
      5016        43  POPC      H9Y            46.6113480308       55.6125558300       45.2693995731  MEMB      37              0.0000000000
      5017        43  POPC      C310           44.6976037041       55.0950954417       44.3028878839  MEMB      37              0.0000000000
      5018        43  POPC      H10X           44.6986736653       56.1705518467       44.0360513006  MEMB      37              0.0000000000
      5019        43  POPC      H10Y           43.6952419968       54.8347496886       44.7000974809  MEMB      37              0.0000000000
      5020        43  POPC      C311           44.9580719465       54.2553425149       43.0341491660  MEMB      37              0.0000000000
      5021        43  POPC      H11X           44.9855146982       53.1760416971       43.3005531535  MEMB      37              0.0000000000
      5022        43  POPC      H11Y           45.9849197126       54.4800711414       42.7150456569  MEMB      37              0.0000000000
      5023        43  POPC      C312           43.9976628010       54.4374756630       41.8283912126  MEMB      37              0.0000000000
      5024        43  POPC      H12X           43.0740672751       53.8680436422       42.0111465696  MEMB      37              0.0000000000
      5025        43  POPC      H12Y           44.4015653381       53.9191125731       40.9406893155  MEMB      37              0.0000000000
      5026        43  POPC      C313           43.5346637520       55.8588885391       41.4531368635  MEMB      37              0.0000000000
      5027        43  POPC      H13X           43.7387254816       56.5903379424       42.2551880248  MEMB      37              0.0000000000
      5028        43  POPC      H13Y           42.4327695440       55.7823139078       41.3405832926  MEMB      37              0.0000000000
      5029        43  POPC      C314           43.9837359437       56.3904653802       40.0893434159  MEMB      37              0.0000000000
      5030        43  POPC      H14X           43.8270932134       55.5907063398       39.3341009107  MEMB      37              0.0000000000
      5031        43  POPC      H14Y           45.0630453336       56.6302953002       40.1090240117  MEMB      37              0.0000000000
      5032        43  POPC      C315           43.2294250351       57.6384680584       39.6254552807  MEMB      37              0.0000000000
      5033        43  POPC      H15X           43.4247262736       58.4877239604       40.3102227725  MEMB      37              0.0000000000
      5034        43  POPC      H15Y           42.1409002545       57.4517852524       39.6633601408  MEMB      37              0.0000000000
      5035        43  POPC      C316           43.6187821965       58.0468190532       38.2097862536  MEMB      37              0.0000000000
      5036        43  POPC      H16X           44.7142295296       58.1997987168       38.1538748251  MEMB      37              0.0000000000
      5037        43  POPC      H16Y           43.1172422751       58.9920491012       37.9236287450  MEMB      37              0.0000000000
      5038        43  POPC      H16Z           43.3444141146       57.2525647393       37.4860220579  MEMB      37              0.0000000000
      5039        44  POPC      N              12.9844156922       12.2395587597       61.5547555551  MEMB      38              0.0000000000
      5040        44  POPC      C12            13.2422767393       13.7175922893       61.7626813076  MEMB      38              0.0000000000
      5041        44  POPC      H12A           14.3042616286       13.9156725422       61.6904731545  MEMB      38              0.0000000000
      5042        44  POPC      H12B           12.9365488052       14.0043874481       62.7716147031  MEMB      38              0.0000000000
      5043        44  POPC      C13            13.3237504952       11.8306612644       60.1487103785  MEMB      38              0.0000000000
      5044        44  POPC      H13A           12.7090971795       12.3980410082       59.4550118843  MEMB      38              0.0000000000
      5045        44  POPC      H13B           14.3712722341       12.0095415694       59.9277189748  MEMB      38              0.0000000000
      5046        44  POPC      H13C           13.1748198764       10.7639901683       59.9845186636  MEMB      38              0.0000000000
      5047        44  POPC      C14            13.8261141475       11.4361274191       62.4866388580  MEMB      38              0.0000000000
      5048        44  POPC      H14A           13.6803377932       11.7156926408       63.5271143055  MEMB      38              0.0000000000
      5049        44  POPC      H14B           13.5951884658       10.3833754122       62.3710265952  MEMB      38              0.0000000000
      5050        44  POPC      H14C           14.8703871235       11.5366050743       62.2121026025  MEMB      38              0.0000000000
      5051        44  POPC      C15            11.5315978517       11.9376715315       61.7885101433  MEMB      38              0.0000000000
      5052        44  POPC      H15A           11.2315862441       12.2216144172       62.7905521203  MEMB      38              0.0000000000
      5053        44  POPC      H15B           11.3364543429       10.8858989103       61.6388833366  MEMB      38              0.0000000000
      5054        44  POPC      H15C           10.9171620444       12.5320986639       61.1161130873  MEMB      38              0.0000000000
      5055        44  POPC      C11            12.5273621489       14.6775600998       60.7960360742  MEMB      38              0.0000000000
      5056        44  POPC      H11A           12.7422862033       14.4059655408       59.7409916591  MEMB      38              0.0000000000
      5057        44  POPC      H11B           12.9876511650       15.6838418283       60.9402668865  MEMB      38              0.0000000000
      5058        44  POPC      P              10.5303689392       15.6819411742       62.0918740301  MEMB      38              0.0000000000
      5059        44  POPC      O13            11.2727760768       15.4754625422       63.3592886911  MEMB      38              0.0000000000
      5060        44  POPC      O14             9.0607989765       15.6062439230       62.1485819430  MEMB      38              0.0000000000
      5061        44  POPC      O12            11.1076255704       14.6775643074       60.9989758603  MEMB      38              0.0000000000
      5062        44  POPC      O11            10.9462994253       17.1095434985       61.5897631915  MEMB      38              0.0000000000
      5063        44  POPC      C1             10.3634566738       17.7454625212       60.4677982898  MEMB      38              0.0000000000
      5064        44  POPC      HA             10.3287088035       18.8422744636       60.6614649654  MEMB      38              0.0000000000
      5065        44  POPC      HB              9.3281086328       17.4098698057       60.3182238841  MEMB      38              0.0000000000
      5066        44  POPC      C2             11.1957119079       17.5306367762       59.1821746207  MEMB      38              0.0000000000
      5067        44  POPC      HS             10.7629288735       18.1942463745       58.3941582265  MEMB      38              0.0000000000
      5068        44  POPC      O21            11.1794911020       16.1534451934       58.7508189968  MEMB      38              0.0000000000
      5069        44  POPC      C21            10.0284139557       15.8005571753       58.2034343324  MEMB      38              0.0000000000
      5070        44  POPC      O22             9.1637208001       16.5726138146       57.8363619184  MEMB      38              0.0000000000
      5071        44  POPC      C22             9.9344684703       14.2925294184       58.0512175711  MEMB      38              0.0000000000
      5072        44  POPC      H2R             9.2312963845       13.9685910797       58.8517739568  MEMB      38              0.0000000000
      5073        44  POPC      H2S            10.9192900693       13.8274473090       58.2444056262  MEMB      38              0.0000000000
      5074        44  POPC      C3             12.6578639710       17.9953875016       59.4160994443  MEMB      38              0.0000000000
      5075        44  POPC      HX             13.0143661410       17.6276845515       60.3996787618  MEMB      38              0.0000000000
      5076        44  POPC      HY             12.6203004955       19.0999558341       59.5101286003  MEMB      38              0.0000000000
      5077        44  POPC      O31            13.5761101771       17.5363235014       58.3927273617  MEMB      38              0.0000000000
      5078        44  POPC      C31            13.2559757306       17.9504403892       57.1806776150  MEMB      38              0.0000000000
      5079        44  POPC      O32            12.4871516635       18.8516422137       56.9152674818  MEMB      38              0.0000000000
      5080        44  POPC      C32            13.9699702631       17.0790779296       56.1399644655  MEMB      38              0.0000000000
      5081        44  POPC      H2X            13.5038753783       16.0739289464       56.2010617540  MEMB      38              0.0000000000
      5082        44  POPC      H2Y            15.0331365819       16.9749951629       56.4390723295  MEMB      38              0.0000000000
      5083        44  POPC      C23             9.3632060578       13.8973974123       56.6709816354  MEMB      38              0.0000000000
      5084        44  POPC      H3R             8.5688095586       14.6023048512       56.3334167946  MEMB      38              0.0000000000
      5085        44  POPC      H3S             8.8819125531       12.9131041063       56.7894865285  MEMB      38              0.0000000000
      5086        44  POPC      C24            10.4161474580       13.6972284476       55.5788443089  MEMB      38              0.0000000000
      5087        44  POPC      H4R            11.2472307861       13.0784274308       55.9781932864  MEMB      38              0.0000000000
      5088        44  POPC      H4S            10.8471632017       14.6744702905       55.3123870757  MEMB      38              0.0000000000
      5089        44  POPC      C25             9.8331683150       13.0725245354       54.3001190623  MEMB      38              0.0000000000
      5090        44  POPC      H5R             8.9445954387       13.6744367000       54.0065060808  MEMB      38              0.0000000000
      5091        44  POPC      H5S             9.4854549743       12.0418115979       54.5125776720  MEMB      38              0.0000000000
      5092        44  POPC      C26            10.8134362993       13.0544711986       53.1154820721  MEMB      38              0.0000000000
      5093        44  POPC      H6R            11.0954210848       14.1059934975       52.8928169532  MEMB      38              0.0000000000
      5094        44  POPC      H6S            10.3059692985       12.6592196183       52.2073120102  MEMB      38              0.0000000000
      5095        44  POPC      C27            12.0939125579       12.2388682432       53.3696481556  MEMB      38              0.0000000000
      5096        44  POPC      H7R            11.8590420877       11.1562281573       53.2633519655  MEMB      38              0.0000000000
      5097        44  POPC      H7S            12.4494364329       12.3880424711       54.4115936133  MEMB      38              0.0000000000
      5098        44  POPC      C28            13.2579747539       12.6049486046       52.4300617125  MEMB      38              0.0000000000
      5099        44  POPC      H8R            12.9485122879       12.3965048859       51.3836381463  MEMB      38              0.0000000000
      5100        44  POPC      H8S            14.0889457924       11.9167036128       52.6576595899  MEMB      38              0.0000000000
      5101        44  POPC      C29            13.7847215477       14.0045464147       52.6225232613  MEMB      38              0.0000000000
      5102        44  POPC      H91            14.1212735330       14.2295336764       53.6481853353  MEMB      38              0.0000000000
      5103        44  POPC      C210           13.8360487472       14.9644240512       51.6820535942  MEMB      38              0.0000000000
      5104        44  POPC      H101           14.2027571524       15.9662080288       51.9531985575  MEMB      38              0.0000000000
      5105        44  POPC      C211           13.3704144190       14.8178360513       50.2574663134  MEMB      38              0.0000000000
      5106        44  POPC      H11R           13.2025789956       15.8253599970       49.8236479147  MEMB      38              0.0000000000
      5107        44  POPC      H11S           12.3743605044       14.3198693566       50.2558636981  MEMB      38              0.0000000000
      5108        44  POPC      C212           14.2750076457       14.0165954935       49.2952450811  MEMB      38              0.0000000000
      5109        44  POPC      H12R           13.7614427621       13.9519911993       48.3096303934  MEMB      38              0.0000000000
      5110        44  POPC      H12S           14.3800003265       12.9777990457       49.6820999500  MEMB      38              0.0000000000
      5111        44  POPC      C213           15.6794368448       14.6029711092       49.0778974092  MEMB      38              0.0000000000
      5112        44  POPC      H13R           16.3005081173       13.8768143724       48.5078470928  MEMB      38              0.0000000000
      5113        44  POPC      H13S           16.1570575160       14.7183316988       50.0780349593  MEMB      38              0.0000000000
      5114        44  POPC      C214           15.7103521294       15.9656539257       48.3628280723  MEMB      38              0.0000000000
      5115        44  POPC      H14R           16.6156334286       16.5001583588       48.7400762362  MEMB      38              0.0000000000
      5116        44  POPC      H14S           14.8361713547       16.5765730012       48.6518804608  MEMB      38              0.0000000000
      5117        44  POPC      C215           15.8589032875       15.9087521514       46.8303038460  MEMB      38              0.0000000000
      5118        44  POPC      H15R           16.4182361479       14.9957963346       46.5336973047  MEMB      38              0.0000000000
      5119        44  POPC      H15S           16.4720910965       16.7921232779       46.5288092650  MEMB      38              0.0000000000
      5120        44  POPC      C216           14.5608691401       15.9824197258       46.0158324551  MEMB      38              0.0000000000
      5121        44  POPC      H16R           13.9673527646       16.8564756513       46.3564539639  MEMB      38              0.0000000000
      5122        44  POPC      H16S           13.9519984029       15.0704891960       46.1899056468  MEMB      38              0.0000000000
      5123        44  POPC      C217           14.8700810014       16.1360896947       44.5161940304  MEMB      38              0.0000000000
      5124        44  POPC      H17R           15.4064788933       15.2233755063       44.1690605638  MEMB      38              0.0000000000
      5125        44  POPC      H17S           15.5694394548       16.9966625361       44.3945986536  MEMB      38              0.0000000000
      5126        44  POPC      C218           13.6464388769       16.3756474767       43.6285500190  MEMB      38              0.0000000000
      5127        44  POPC      H18R           12.9346271002       15.5287631301       43.7018352086  MEMB      38              0.0000000000
      5128        44  POPC      H18S           13.9528882675       16.4901103253       42.5656834238  MEMB      38              0.0000000000
      5129        44  POPC      H18T           13.1160397752       17.3019987413       43.9352804840  MEMB      38              0.0000000000
      5130        44  POPC      C33            13.8893536472       17.6028678759       54.6743946610  MEMB      38              0.0000000000
      5131        44  POPC      H3X            14.3327692886       16.8134323406       54.0265075609  MEMB      38              0.0000000000
      5132        44  POPC      H3Y            14.5209308727       18.5136128667       54.5729723412  MEMB      38              0.0000000000
      5133        44  POPC      C34            12.4887759618       17.9492035041       54.1130232960  MEMB      38              0.0000000000
      5134        44  POPC      H4X            12.5587774374       18.1292966763       53.0191420205  MEMB      38              0.0000000000
      5135        44  POPC      H4Y            12.1535238672       18.8982052459       54.5825420087  MEMB      38              0.0000000000
      5136        44  POPC      C35            11.3983944126       16.9082036715       54.3813955940  MEMB      38              0.0000000000
      5137        44  POPC      H5X            11.5480357611       16.5482879802       55.4225148951  MEMB      38              0.0000000000
      5138        44  POPC      H5Y            11.5137883325       16.0484926318       53.6908895813  MEMB      38              0.0000000000
      5139        44  POPC      C36             9.9500459180       17.4392994212       54.3692271255  MEMB      38              0.0000000000
      5140        44  POPC      H6X             9.9181151312       18.3352527006       55.0312968832  MEMB      38              0.0000000000
      5141        44  POPC      H6Y             9.2846826739       16.6721645990       54.8317845843  MEMB      38              0.0000000000
      5142        44  POPC      C37             9.3835793056       17.8145655111       52.9910394029  MEMB      38              0.0000000000
      5143        44  POPC      H7X            10.0735948893       18.5138386606       52.4776277143  MEMB      38              0.0000000000
      5144        44  POPC      H7Y             8.4298829529       18.3641054485       53.1636349918  MEMB      38              0.0000000000
      5145        44  POPC      C38             9.0778293256       16.6139652456       52.0797620460  MEMB      38              0.0000000000
      5146        44  POPC      H8X             8.0474615714       16.7304220271       51.6716356063  MEMB      38              0.0000000000
      5147        44  POPC      H8Y             9.0963891030       15.6864754023       52.6921924214  MEMB      38              0.0000000000
      5148        44  POPC      C39            10.0294229886       16.4657356424       50.8833098508  MEMB      38              0.0000000000
      5149        44  POPC      H9X            11.0733637855       16.3434554353       51.2470156641  MEMB      38              0.0000000000
      5150        44  POPC      H9Y             9.9847050338       17.4107010447       50.2958945922  MEMB      38              0.0000000000
      5151        44  POPC      C310            9.6412934440       15.2917376882       49.9619867346  MEMB      38              0.0000000000
      5152        44  POPC      H10X            8.5400848343       15.3167035222       49.8204535131  MEMB      38              0.0000000000
      5153        44  POPC      H10Y            9.9063232510       14.3240543437       50.4415386034  MEMB      38              0.0000000000
      5154        44  POPC      C311           10.2518640871       15.3975774602       48.5610164894  MEMB      38              0.0000000000
      5155        44  POPC      H11X           11.3592974684       15.4062987961       48.6259533827  MEMB      38              0.0000000000
      5156        44  POPC      H11Y            9.9236258766       16.3729962746       48.1341796463  MEMB      38              0.0000000000
      5157        44  POPC      C312            9.8497043313       14.3002254664       47.5654746565  MEMB      38              0.0000000000
      5158        44  POPC      H12X            8.7702543887       14.0592891158       47.6877945964  MEMB      38              0.0000000000
      5159        44  POPC      H12Y           10.4369566596       13.3794926497       47.7805093362  MEMB      38              0.0000000000
      5160        44  POPC      C313           10.1047426767       14.7811546474       46.1263356531  MEMB      38              0.0000000000
      5161        44  POPC      H13X           11.1605375584       15.1197803805       46.0390863823  MEMB      38              0.0000000000
      5162        44  POPC      H13Y            9.4666908618       15.6767048703       45.9496983177  MEMB      38              0.0000000000
      5163        44  POPC      C314            9.7914297568       13.7679494615       45.0122509179  MEMB      38              0.0000000000
      5164        44  POPC      H14X            9.8964657495       14.3053133456       44.0427978794  MEMB      38              0.0000000000
      5165        44  POPC      H14Y            8.7307733232       13.4434838398       45.0907101195  MEMB      38              0.0000000000
      5166        44  POPC      C315           10.7133981493       12.5397818252       44.9523224378  MEMB      38              0.0000000000
      5167        44  POPC      H15X           10.3698940837       11.8906505547       44.1161775147  MEMB      38              0.0000000000
      5168        44  POPC      H15Y           10.6151954064       11.9351901750       45.8734987336  MEMB      38              0.0000000000
      5169        44  POPC      C316           12.1955472337       12.8647125593       44.7658878674  MEMB      38              0.0000000000
      5170        44  POPC      H16X           12.7900930499       11.9298227390       44.6793350903  MEMB      38              0.0000000000
      5171        44  POPC      H16Y           12.5735963572       13.4392677304       45.6361717073  MEMB      38              0.0000000000
      5172        44  POPC      H16Z           12.3465564085       13.4653786035       43.8454426537  MEMB      38              0.0000000000
      5173        45  POPC      N              29.3594256050       60.7178250231       62.7285080489  MEMB      39              0.0000000000
      5174        45  POPC      C12            30.8236171541       61.1167197492       62.7494832560  MEMB      39              0.0000000000
      5175        45  POPC      H12A           31.3719788777       60.5286033051       63.4662111243  MEMB      39              0.0000000000
      5176        45  POPC      H12B           30.8838027557       62.1512144658       63.0964202026  MEMB      39              0.0000000000
      5177        45  POPC      C13            29.2250583274       59.3018039581       62.2903808068  MEMB      39              0.0000000000
      5178        45  POPC      H13A           28.1904771909       59.0398168903       62.1221025053  MEMB      39              0.0000000000
      5179        45  POPC      H13B           29.7379060594       59.1873123091       61.3251539915  MEMB      39              0.0000000000
      5180        45  POPC      H13C           29.6562077522       58.6329763119       63.0214491294  MEMB      39              0.0000000000
      5181        45  POPC      C14            28.7054269449       60.9394990705       64.0470728907  MEMB      39              0.0000000000
      5182        45  POPC      H14A           28.6888824844       61.9932803285       64.2924800483  MEMB      39              0.0000000000
      5183        45  POPC      H14B           27.6856778040       60.5704183849       64.0297828921  MEMB      39              0.0000000000
      5184        45  POPC      H14C           29.2099775240       60.4182346858       64.8579093294  MEMB      39              0.0000000000
      5185        45  POPC      C15            28.6815705659       61.5966463408       61.7294390472  MEMB      39              0.0000000000
      5186        45  POPC      H15A           28.9203958461       62.6364789794       61.9634458102  MEMB      39              0.0000000000
      5187        45  POPC      H15B           27.6220483459       61.4494787910       61.6684677952  MEMB      39              0.0000000000
      5188        45  POPC      H15C           29.1526224055       61.4356338572       60.7520725932  MEMB      39              0.0000000000
      5189        45  POPC      C11            31.5524588879       61.1051787795       61.3756541911  MEMB      39              0.0000000000
      5190        45  POPC      H11A           31.3741292832       60.1449149721       60.8463300782  MEMB      39              0.0000000000
      5191        45  POPC      H11B           32.6561469987       61.1557575527       61.5421977554  MEMB      39              0.0000000000
      5192        45  POPC      P              31.5694403109       63.6323698216       60.9915207739  MEMB      39              0.0000000000
      5193        45  POPC      O13            33.0261428101       63.7109243063       60.8276264948  MEMB      39              0.0000000000
      5194        45  POPC      O14            31.0378322513       63.8900913052       62.3602287872  MEMB      39              0.0000000000
      5195        45  POPC      O12            31.1007318226       62.1850821277       60.5410775952  MEMB      39              0.0000000000
      5196        45  POPC      O11            30.8494630309       64.5656856090       59.9806224455  MEMB      39              0.0000000000
      5197        45  POPC      C1             29.4437407555       64.5529954712       59.7930012684  MEMB      39              0.0000000000
      5198        45  POPC      HA             28.9405558609       65.1288559819       60.6022170377  MEMB      39              0.0000000000
      5199        45  POPC      HB             29.0187717965       63.5248015648       59.7651340735  MEMB      39              0.0000000000
      5200        45  POPC      C2             29.1947816524       65.2396805143       58.4488737323  MEMB      39              0.0000000000
      5201        45  POPC      HS             28.1133279117       65.4900567757       58.3473311195  MEMB      39              0.0000000000
      5202        45  POPC      O21            29.6381746386       64.3851320109       57.3797516554  MEMB      39              0.0000000000
      5203        45  POPC      C21            28.8219605063       63.4030811329       57.0877654967  MEMB      39              0.0000000000
      5204        45  POPC      O22            27.6972363076       63.2450379487       57.5454840887  MEMB      39              0.0000000000
      5205        45  POPC      C22            29.4312866586       62.5418393110       55.9875025693  MEMB      39              0.0000000000
      5206        45  POPC      H2R            29.8680170612       63.2353253609       55.2417342168  MEMB      39              0.0000000000
      5207        45  POPC      H2S            28.5980520075       61.9903054177       55.5088077966  MEMB      39              0.0000000000
      5208        45  POPC      C3             29.9859345676       66.5681014491       58.3986599941  MEMB      39              0.0000000000
      5209        45  POPC      HX             31.0811982754       66.3848206255       58.5176752504  MEMB      39              0.0000000000
      5210        45  POPC      HY             29.6800719495       67.1843592003       59.2735948376  MEMB      39              0.0000000000
      5211        45  POPC      O31            29.6563999970       67.2691253029       57.1910613116  MEMB      39              0.0000000000
      5212        45  POPC      C31            30.4595450683       67.0265612698       56.1589418525  MEMB      39              0.0000000000
      5213        45  POPC      O32            31.4611954619       66.3414498579       56.1713411665  MEMB      39              0.0000000000
      5214        45  POPC      C32            29.9322568580       67.7376163872       54.9227508182  MEMB      39              0.0000000000
      5215        45  POPC      H2X            30.7129961746       67.6604057792       54.1384983463  MEMB      39              0.0000000000
      5216        45  POPC      H2Y            29.8005285916       68.8034403713       55.2000079328  MEMB      39              0.0000000000
      5217        45  POPC      C23            30.5029575046       61.5460985863       56.4807577967  MEMB      39              0.0000000000
      5218        45  POPC      H3R            30.0349203882       60.8136051240       57.1746101314  MEMB      39              0.0000000000
      5219        45  POPC      H3S            31.2831512677       62.0831488654       57.0685042430  MEMB      39              0.0000000000
      5220        45  POPC      C24            31.1678365954       60.7936610533       55.3098368646  MEMB      39              0.0000000000
      5221        45  POPC      H4R            30.4073050903       60.1530520395       54.8092605015  MEMB      39              0.0000000000
      5222        45  POPC      H4S            31.9612038105       60.1289973394       55.7224271218  MEMB      39              0.0000000000
      5223        45  POPC      C25            31.8421448071       61.6909805346       54.2611670140  MEMB      39              0.0000000000
      5224        45  POPC      H5R            31.0724764068       62.2303832252       53.6662603181  MEMB      39              0.0000000000
      5225        45  POPC      H5S            32.4145537554       61.0517737608       53.5501066574  MEMB      39              0.0000000000
      5226        45  POPC      C26            32.8002927797       62.7028901875       54.8995689040  MEMB      39              0.0000000000
      5227        45  POPC      H6R            33.5332939467       62.1554245699       55.5312624826  MEMB      39              0.0000000000
      5228        45  POPC      H6S            32.2346175603       63.3924887677       55.5708098858  MEMB      39              0.0000000000
      5229        45  POPC      C27            33.5420886164       63.5672657548       53.8818183158  MEMB      39              0.0000000000
      5230        45  POPC      H7R            34.0055293239       62.9323178833       53.0957573749  MEMB      39              0.0000000000
      5231        45  POPC      H7S            34.3661131002       64.0851211366       54.4272950355  MEMB      39              0.0000000000
      5232        45  POPC      C28            32.6051140078       64.6031542146       53.2475869411  MEMB      39              0.0000000000
      5233        45  POPC      H8R            31.9865840215       65.0648010111       54.0492368919  MEMB      39              0.0000000000
      5234        45  POPC      H8S            31.9068964787       64.1036497554       52.5423951519  MEMB      39              0.0000000000
      5235        45  POPC      C29            33.3882368371       65.6809052717       52.5714931336  MEMB      39              0.0000000000
      5236        45  POPC      H91            33.6382977607       66.5376946656       53.2152429106  MEMB      39              0.0000000000
      5237        45  POPC      C210           33.8149194565       65.6903844792       51.3051656264  MEMB      39              0.0000000000
      5238        45  POPC      H101           34.3025385963       66.6044537528       50.9762806544  MEMB      39              0.0000000000
      5239        45  POPC      C211           33.6370794917       64.6568193711       50.2222874208  MEMB      39              0.0000000000
      5240        45  POPC      H11R           33.1256502249       63.7407999579       50.5892222747  MEMB      39              0.0000000000
      5241        45  POPC      H11S           34.6248605885       64.3494461627       49.8106008248  MEMB      39              0.0000000000
      5242        45  POPC      C212           32.8039432837       65.3135894021       49.1112339426  MEMB      39              0.0000000000
      5243        45  POPC      H12R           33.3255623162       66.2244049046       48.7356539390  MEMB      39              0.0000000000
      5244        45  POPC      H12S           31.8273183289       65.6417708068       49.5423913567  MEMB      39              0.0000000000
      5245        45  POPC      C213           32.4889261038       64.4182151577       47.9010362939  MEMB      39              0.0000000000
      5246        45  POPC      H13R           31.9430330571       63.5361000105       48.2828884377  MEMB      39              0.0000000000
      5247        45  POPC      H13S           33.4277967682       64.0832962002       47.4119566415  MEMB      39              0.0000000000
      5248        45  POPC      C214           31.6181288744       65.2222210651       46.9258934967  MEMB      39              0.0000000000
      5249        45  POPC      H14R           32.2311393578       66.1126637264       46.6659500108  MEMB      39              0.0000000000
      5250        45  POPC      H14S           30.7234750733       65.5476299388       47.5022881079  MEMB      39              0.0000000000
      5251        45  POPC      C215           31.1212555842       64.6318740153       45.5939627979  MEMB      39              0.0000000000
      5252        45  POPC      H15R           30.3972582497       63.8089622189       45.7517896901  MEMB      39              0.0000000000
      5253        45  POPC      H15S           31.9813899788       64.2590280786       45.0022919618  MEMB      39              0.0000000000
      5254        45  POPC      C216           30.4003820763       65.7139219607       44.7732981446  MEMB      39              0.0000000000
      5255        45  POPC      H16R           31.1483442352       66.4609134729       44.4281449066  MEMB      39              0.0000000000
      5256        45  POPC      H16S           29.6636391032       66.2099397252       45.4258630892  MEMB      39              0.0000000000
      5257        45  POPC      C217           29.5591079381       65.2365611773       43.6007755296  MEMB      39              0.0000000000
      5258        45  POPC      H17R           28.5983444283       64.8175309566       43.9836699992  MEMB      39              0.0000000000
      5259        45  POPC      H17S           30.1296951323       64.4157861641       43.1328566616  MEMB      39              0.0000000000
      5260        45  POPC      C218           29.2764365685       66.3580301708       42.5928946248  MEMB      39              0.0000000000
      5261        45  POPC      H18R           28.8440156913       67.2488568204       43.0948447449  MEMB      39              0.0000000000
      5262        45  POPC      H18S           28.5594966057       66.0335931680       41.8101608175  MEMB      39              0.0000000000
      5263        45  POPC      H18T           30.2182190380       66.6657066584       42.0888247318  MEMB      39              0.0000000000
      5264        45  POPC      C33            28.5771708705       67.2134339609       54.3972435015  MEMB      39              0.0000000000
      5265        45  POPC      H3X            28.2351021856       67.9242979948       53.6070089660  MEMB      39              0.0000000000
      5266        45  POPC      H3Y            27.8116013142       67.2252986162       55.2037915015  MEMB      39              0.0000000000
      5267        45  POPC      C34            28.6645819483       65.8175981942       53.7739788110  MEMB      39              0.0000000000
      5268        45  POPC      H4X            28.8108273389       65.0755419846       54.5896544183  MEMB      39              0.0000000000
      5269        45  POPC      H4Y            29.5516956134       65.7584302369       53.1033106943  MEMB      39              0.0000000000
      5270        45  POPC      C35            27.4083059827       65.4519674142       52.9717339653  MEMB      39              0.0000000000
      5271        45  POPC      H5X            27.3813700320       66.0451678108       52.0297911210  MEMB      39              0.0000000000
      5272        45  POPC      H5Y            26.5075614925       65.7299597894       53.5666672605  MEMB      39              0.0000000000
      5273        45  POPC      C36            27.3162970621       63.9557745778       52.6422812701  MEMB      39              0.0000000000
      5274        45  POPC      H6X            26.3778465629       63.7715303331       52.0688953752  MEMB      39              0.0000000000
      5275        45  POPC      H6Y            27.2355779347       63.3869434572       53.5971597535  MEMB      39              0.0000000000
      5276        45  POPC      C37            28.5071448196       63.4041678188       51.8428479465  MEMB      39              0.0000000000
      5277        45  POPC      H7X            29.4568910205       63.5745000537       52.3935945861  MEMB      39              0.0000000000
      5278        45  POPC      H7Y            28.5706783670       63.9413161156       50.8703841409  MEMB      39              0.0000000000
      5279        45  POPC      C38            28.3528318347       61.8971884487       51.5935435033  MEMB      39              0.0000000000
      5280        45  POPC      H8X            27.4541471106       61.7654382887       50.9584313258  MEMB      39              0.0000000000
      5281        45  POPC      H8Y            28.1748933031       61.3836530874       52.5650758024  MEMB      39              0.0000000000
      5282        45  POPC      C39            29.5303377455       61.2219813726       50.8797572602  MEMB      39              0.0000000000
      5283        45  POPC      H9X            29.3647993728       60.1179608661       50.8871047008  MEMB      39              0.0000000000
      5284        45  POPC      H9Y            30.4698373881       61.4298513785       51.4356598917  MEMB      39              0.0000000000
      5285        45  POPC      C310           29.6694107803       61.6731989495       49.4238277304  MEMB      39              0.0000000000
      5286        45  POPC      H10X           29.7517021009       62.7822492144       49.3777727357  MEMB      39              0.0000000000
      5287        45  POPC      H10Y           28.7522060188       61.3787520311       48.8620226323  MEMB      39              0.0000000000
      5288        45  POPC      C311           30.8900683727       61.0680927220       48.7263435451  MEMB      39              0.0000000000
      5289        45  POPC      H11X           30.8879556366       59.9670153091       48.8610757684  MEMB      39              0.0000000000
      5290        45  POPC      H11Y           31.8145749215       61.4696757268       49.1993791667  MEMB      39              0.0000000000
      5291        45  POPC      C312           30.8748349916       61.3861344989       47.2242413780  MEMB      39              0.0000000000
      5292        45  POPC      H12X           30.5877954365       62.4469465382       47.1277878091  MEMB      39              0.0000000000
      5293        45  POPC      H12Y           30.0611931438       60.7952416556       46.7552307329  MEMB      39              0.0000000000
      5294        45  POPC      C313           32.2218464031       61.1451238395       46.5203886173  MEMB      39              0.0000000000
      5295        45  POPC      H13X           32.5683441144       60.1266838220       46.7751986596  MEMB      39              0.0000000000
      5296        45  POPC      H13Y           32.9819120393       61.8492781950       46.9237842998  MEMB      39              0.0000000000
      5297        45  POPC      C314           32.2116615350       61.2410871843       44.9832853319  MEMB      39              0.0000000000
      5298        45  POPC      H14X           33.1687397774       60.8175920587       44.6057058919  MEMB      39              0.0000000000
      5299        45  POPC      H14Y           32.1923227281       62.2986574241       44.6623273657  MEMB      39              0.0000000000
      5300        45  POPC      C315           31.0423637879       60.5216037948       44.3013006042  MEMB      39              0.0000000000
      5301        45  POPC      H15X           30.0875107821       61.0127867714       44.5951008059  MEMB      39              0.0000000000
      5302        45  POPC      H15Y           31.0036275340       59.4726908823       44.6680244420  MEMB      39              0.0000000000
      5303        45  POPC      C316           31.1349534972       60.5172259532       42.7751278836  MEMB      39              0.0000000000
      5304        45  POPC      H16X           31.2170621279       59.4810463128       42.3955809239  MEMB      39              0.0000000000
      5305        45  POPC      H16Y           32.0064435826       61.1058953206       42.4190731851  MEMB      39              0.0000000000
      5306        45  POPC      H16Z           30.2203859515       60.9263228568       42.3190456683  MEMB      39              0.0000000000
      5307        46  POPC      N              58.4933503916       46.6658851810       62.5387077921  MEMB      40              0.0000000000
      5308        46  POPC      C12            58.5133566502       47.1873763518       61.0995206017  MEMB      40              0.0000000000
      5309        46  POPC      H12A           58.3888124781       46.3448732395       60.4287570798  MEMB      40              0.0000000000
      5310        46  POPC      H12B           59.4896296777       47.6001086738       60.8761794035  MEMB      40              0.0000000000
      5311        46  POPC      C13            57.3252220895       45.7488120916       62.6394745614  MEMB      40              0.0000000000
      5312        46  POPC      H13A           57.4260264069       44.8910043192       61.9858782494  MEMB      40              0.0000000000
      5313        46  POPC      H13B           57.1554459485       45.3998880122       63.6457573317  MEMB      40              0.0000000000
      5314        46  POPC      H13C           56.4257702684       46.2707203714       62.2908905009  MEMB      40              0.0000000000
      5315        46  POPC      C14            59.7486482656       45.9458893417       62.8879929277  MEMB      40              0.0000000000
      5316        46  POPC      H14A           60.6144310927       46.6026007115       62.8495220678  MEMB      40              0.0000000000
      5317        46  POPC      H14B           59.7003451867       45.4865226283       63.8617752613  MEMB      40              0.0000000000
      5318        46  POPC      H14C           59.9761468903       45.1683664990       62.1492884296  MEMB      40              0.0000000000
      5319        46  POPC      C15            58.3252905759       47.8069689467       63.4881286030  MEMB      40              0.0000000000
      5320        46  POPC      H15A           59.1449055519       48.5130853243       63.4143762169  MEMB      40              0.0000000000
      5321        46  POPC      H15B           58.2721406450       47.4634915175       64.5105434799  MEMB      40              0.0000000000
      5322        46  POPC      H15C           57.4101889224       48.3399727944       63.2371620207  MEMB      40              0.0000000000
      5323        46  POPC      C11            57.4338768508       48.2410715441       60.6850682789  MEMB      40              0.0000000000
      5324        46  POPC      H11A           57.5914592239       48.4673648428       59.6068126735  MEMB      40              0.0000000000
      5325        46  POPC      H11B           57.6172062184       49.1882178845       61.2355838194  MEMB      40              0.0000000000
      5326        46  POPC      P              54.8828847646       47.9855109648       59.9120380831  MEMB      40              0.0000000000
      5327        46  POPC      O13            55.2456081954       48.9528704568       58.8509046516  MEMB      40              0.0000000000
      5328        46  POPC      O14            53.6602917613       48.2648394360       60.7039343418  MEMB      40              0.0000000000
      5329        46  POPC      O12            56.1015769525       47.8121660162       60.9436757481  MEMB      40              0.0000000000
      5330        46  POPC      O11            54.7944229608       46.5132021268       59.3186341860  MEMB      40              0.0000000000
      5331        46  POPC      C1             54.6931079371       45.4711032120       60.3105495812  MEMB      40              0.0000000000
      5332        46  POPC      HA             54.1656356370       45.8061233283       61.2415120958  MEMB      40              0.0000000000
      5333        46  POPC      HB             55.7099201657       45.1471319451       60.6089287815  MEMB      40              0.0000000000
      5334        46  POPC      C2             53.8817334989       44.2299171351       59.8330098028  MEMB      40              0.0000000000
      5335        46  POPC      HS             53.9074094601       43.4825227704       60.6572687131  MEMB      40              0.0000000000
      5336        46  POPC      O21            54.3867144642       43.6265196139       58.6383585950  MEMB      40              0.0000000000
      5337        46  POPC      C21            55.6833771749       43.6274384373       58.4706376787  MEMB      40              0.0000000000
      5338        46  POPC      O22            56.4982541878       43.1844091548       59.2679132991  MEMB      40              0.0000000000
      5339        46  POPC      C22            56.0188312441       44.2114509864       57.0998162734  MEMB      40              0.0000000000
      5340        46  POPC      H2R            55.5390866875       45.2103528017       57.0386616572  MEMB      40              0.0000000000
      5341        46  POPC      H2S            55.5475690794       43.5593517972       56.3366029811  MEMB      40              0.0000000000
      5342        46  POPC      C3             52.3762710075       44.5718454463       59.6036518490  MEMB      40              0.0000000000
      5343        46  POPC      HX             52.0330316986       44.8725498754       60.6062416174  MEMB      40              0.0000000000
      5344        46  POPC      HY             51.8112961548       43.6610144018       59.3096269661  MEMB      40              0.0000000000
      5345        46  POPC      O31            52.0449725819       45.6763866169       58.7493320902  MEMB      40              0.0000000000
      5346        46  POPC      C31            52.4015670015       45.6658612999       57.4938422690  MEMB      40              0.0000000000
      5347        46  POPC      O32            53.0605191617       44.8428321584       56.8881455632  MEMB      40              0.0000000000
      5348        46  POPC      C32            51.6865550648       46.8269817620       56.8192060032  MEMB      40              0.0000000000
      5349        46  POPC      H2X            51.7802752909       47.7350026183       57.4485081583  MEMB      40              0.0000000000
      5350        46  POPC      H2Y            50.6140986223       46.5417609812       56.7644066761  MEMB      40              0.0000000000
      5351        46  POPC      C23            57.5368043824       44.3333256368       56.8546429772  MEMB      40              0.0000000000
      5352        46  POPC      H3R            57.7074188163       44.5212273359       55.7710661091  MEMB      40              0.0000000000
      5353        46  POPC      H3S            58.0425286707       43.3738587679       57.1073156921  MEMB      40              0.0000000000
      5354        46  POPC      C24            58.1927802894       45.4726557886       57.6495432386  MEMB      40              0.0000000000
      5355        46  POPC      H4R            59.2923151543       45.4336751569       57.4720505878  MEMB      40              0.0000000000
      5356        46  POPC      H4S            58.0203616496       45.3053989188       58.7363719149  MEMB      40              0.0000000000
      5357        46  POPC      C25            57.7083698324       46.8841534166       57.2947616656  MEMB      40              0.0000000000
      5358        46  POPC      H5R            58.3244967786       47.6119682737       57.8706143699  MEMB      40              0.0000000000
      5359        46  POPC      H5S            56.6484360151       47.0215376701       57.6039000071  MEMB      40              0.0000000000
      5360        46  POPC      C26            57.8334749888       47.2391757483       55.8146175572  MEMB      40              0.0000000000
      5361        46  POPC      H6R            57.0330063508       46.7193437290       55.2406269958  MEMB      40              0.0000000000
      5362        46  POPC      H6S            58.8147544722       46.8823475336       55.4339556063  MEMB      40              0.0000000000
      5363        46  POPC      C27            57.7168246869       48.7489348223       55.5851520492  MEMB      40              0.0000000000
      5364        46  POPC      H7R            58.5225734979       49.2774345770       56.1395616321  MEMB      40              0.0000000000
      5365        46  POPC      H7S            56.7470300820       49.0896921247       56.0188920863  MEMB      40              0.0000000000
      5366        46  POPC      C28            57.7539771119       49.1051949279       54.0906850296  MEMB      40              0.0000000000
      5367        46  POPC      H8R            57.4148631120       50.1560920738       53.9758380678  MEMB      40              0.0000000000
      5368        46  POPC      H8S            56.9743091304       48.4798587620       53.6038070505  MEMB      40              0.0000000000
      5369        46  POPC      C29            59.1193587502       48.9054176929       53.4670411186  MEMB      40              0.0000000000
      5370        46  POPC      H91            59.9736393170       49.3034761820       54.0395898598  MEMB      40              0.0000000000
      5371        46  POPC      C210           59.3292041891       48.3007612113       52.2831707746  MEMB      40              0.0000000000
      5372        46  POPC      H101           60.3486568496       48.1658136304       51.8922406431  MEMB      40              0.0000000000
      5373        46  POPC      C211           58.2131013160       47.7526079997       51.4395154486  MEMB      40              0.0000000000
      5374        46  POPC      H11R           57.4431446975       48.5424497950       51.2950826889  MEMB      40              0.0000000000
      5375        46  POPC      H11S           57.7174009048       46.9121504046       51.9770639405  MEMB      40              0.0000000000
      5376        46  POPC      C212           58.6059330629       47.2634309872       50.0373131964  MEMB      40              0.0000000000
      5377        46  POPC      H12R           57.8060694089       46.5677297186       49.6917472573  MEMB      40              0.0000000000
      5378        46  POPC      H12S           59.5464651658       46.6730328371       50.0590743613  MEMB      40              0.0000000000
      5379        46  POPC      C213           58.6895781147       48.4060615652       49.0151236397  MEMB      40              0.0000000000
      5380        46  POPC      H13R           59.5856717823       49.0283398210       49.2214088760  MEMB      40              0.0000000000
      5381        46  POPC      H13S           57.7865008992       49.0522222125       49.1141972293  MEMB      40              0.0000000000
      5382        46  POPC      C214           58.7205086148       47.8608557724       47.5870704952  MEMB      40              0.0000000000
      5383        46  POPC      H14R           57.7314113884       47.4141675786       47.3624278126  MEMB      40              0.0000000000
      5384        46  POPC      H14S           59.4732953102       47.0381670570       47.5458653436  MEMB      40              0.0000000000
      5385        46  POPC      C215           59.0824121372       48.8798118247       46.4971887405  MEMB      40              0.0000000000
      5386        46  POPC      H15R           59.1711477011       48.2852877177       45.5596851683  MEMB      40              0.0000000000
      5387        46  POPC      H15S           60.0767966078       49.3144661716       46.7353922238  MEMB      40              0.0000000000
      5388        46  POPC      C216           58.0751943612       50.0074258080       46.2030656537  MEMB      40              0.0000000000
      5389        46  POPC      H16R           58.5811145320       50.7706955275       45.5666291758  MEMB      40              0.0000000000
      5390        46  POPC      H16S           57.7584159005       50.4990719121       47.1450393105  MEMB      40              0.0000000000
      5391        46  POPC      C217           56.8614920056       49.4842679331       45.4244581781  MEMB      40              0.0000000000
      5392        46  POPC      H17R           56.3711785561       48.7309261435       46.0694729116  MEMB      40              0.0000000000
      5393        46  POPC      H17S           57.2304582207       48.9675668886       44.5090147085  MEMB      40              0.0000000000
      5394        46  POPC      C218           55.8157664311       50.5135305940       44.9983153610  MEMB      40              0.0000000000
      5395        46  POPC      H18R           56.2861289902       51.3254732341       44.4105668119  MEMB      40              0.0000000000
      5396        46  POPC      H18S           55.3035571041       50.9497947324       45.8805757058  MEMB      40              0.0000000000
      5397        46  POPC      H18T           55.0495698200       50.0323007349       44.3508856816  MEMB      40              0.0000000000
      5398        46  POPC      C33            52.2205354036       47.0963624414       55.4013445694  MEMB      40              0.0000000000
      5399        46  POPC      H3X            51.5589545213       47.8638820782       54.9363355712  MEMB      40              0.0000000000
      5400        46  POPC      H3Y            52.1578306939       46.1828654572       54.7683781624  MEMB      40              0.0000000000
      5401        46  POPC      C34            53.6585152096       47.6285808382       55.4363914488  MEMB      40              0.0000000000
      5402        46  POPC      H4X            54.3749612106       46.7778946342       55.4810837167  MEMB      40              0.0000000000
      5403        46  POPC      H4Y            53.8046264614       48.2063438536       56.3772030051  MEMB      40              0.0000000000
      5404        46  POPC      C35            53.9882844145       48.5328639762       54.2442706744  MEMB      40              0.0000000000
      5405        46  POPC      H5X            54.9195431824       49.1003345246       54.4599641681  MEMB      40              0.0000000000
      5406        46  POPC      H5Y            53.1704316659       49.2735104718       54.1064243915  MEMB      40              0.0000000000
      5407        46  POPC      C36            54.1837177571       47.7293198884       52.9524804664  MEMB      40              0.0000000000
      5408        46  POPC      H6X            53.2217357074       47.2160404829       52.7259263567  MEMB      40              0.0000000000
      5409        46  POPC      H6Y            54.9606216826       46.9488672016       53.1190036961  MEMB      40              0.0000000000
      5410        46  POPC      C37            54.6004250173       48.5983217946       51.7574625252  MEMB      40              0.0000000000
      5411        46  POPC      H7X            55.5496041041       49.1249088505       51.9949407059  MEMB      40              0.0000000000
      5412        46  POPC      H7Y            53.8457617735       49.3967191829       51.6150136252  MEMB      40              0.0000000000
      5413        46  POPC      C38            54.7747050890       47.8126267660       50.4444174211  MEMB      40              0.0000000000
      5414        46  POPC      H8X            55.7593692808       47.3001793445       50.4669584152  MEMB      40              0.0000000000
      5415        46  POPC      H8Y            54.7927235250       48.5277735424       49.5915521069  MEMB      40              0.0000000000
      5416        46  POPC      C39            53.7141071490       46.7311323122       50.1983049924  MEMB      40              0.0000000000
      5417        46  POPC      H9X            52.6971222719       47.1625340770       50.2733072716  MEMB      40              0.0000000000
      5418        46  POPC      H9Y            53.8016160948       45.9469067821       50.9844096079  MEMB      40              0.0000000000
      5419        46  POPC      C310           53.8475141516       46.0499193548       48.8355737427  MEMB      40              0.0000000000
      5420        46  POPC      H10X           53.7813964797       46.8189671801       48.0337638678  MEMB      40              0.0000000000
      5421        46  POPC      H10Y           52.9943899591       45.3443634106       48.7029442562  MEMB      40              0.0000000000
      5422        46  POPC      C311           55.1588113649       45.2664122548       48.7047552938  MEMB      40              0.0000000000
      5423        46  POPC      H11X           55.3191784599       44.6711727082       49.6326845963  MEMB      40              0.0000000000
      5424        46  POPC      H11Y           56.0038649397       45.9803702213       48.6039030571  MEMB      40              0.0000000000
      5425        46  POPC      C312           55.1537993263       44.3083689401       47.5125044026  MEMB      40              0.0000000000
      5426        46  POPC      H12X           54.3976632324       43.5228600351       47.7293434490  MEMB      40              0.0000000000
      5427        46  POPC      H12Y           56.1396969136       43.8017298544       47.4342177026  MEMB      40              0.0000000000
      5428        46  POPC      C313           54.8091763040       44.9929718852       46.1812166103  MEMB      40              0.0000000000
      5429        46  POPC      H13X           53.8035928833       45.4530816102       46.2492140627  MEMB      40              0.0000000000
      5430        46  POPC      H13Y           54.7732036111       44.2284652633       45.3848071995  MEMB      40              0.0000000000
      5431        46  POPC      C314           55.7584095955       46.1238876368       45.7850798657  MEMB      40              0.0000000000
      5432        46  POPC      H14X           56.6839887828       45.9918670144       46.3759663959  MEMB      40              0.0000000000
      5433        46  POPC      H14Y           55.2950588109       47.0760908744       46.1116312833  MEMB      40              0.0000000000
      5434        46  POPC      C315           56.1375584646       46.1869834693       44.2963494508  MEMB      40              0.0000000000
      5435        46  POPC      H15X           56.4118202626       45.1714862915       43.9430721247  MEMB      40              0.0000000000
      5436        46  POPC      H15Y           57.0527780635       46.8150176603       44.2043537414  MEMB      40              0.0000000000
      5437        46  POPC      C316           55.0610019723       46.7578719267       43.3756941092  MEMB      40              0.0000000000
      5438        46  POPC      H16X           54.7019612490       47.7366782856       43.7596053446  MEMB      40              0.0000000000
      5439        46  POPC      H16Y           54.2014158327       46.0574704298       43.3200471279  MEMB      40              0.0000000000
      5440        46  POPC      H16Z           55.4609346782       46.9056469244       42.3485008659  MEMB      40              0.0000000000
      5441        47  POPC      N              56.6896686208       22.2318802877       62.6765563060  MEMB      41              0.0000000000
      5442        47  POPC      C12            57.0707840146       20.8955149448       62.0470962074  MEMB      41              0.0000000000
      5443        47  POPC      H12A           56.2174188516       20.4772827874       61.5366509125  MEMB      41              0.0000000000
      5444        47  POPC      H12B           57.3687490324       20.2185609793       62.8462234205  MEMB      41              0.0000000000
      5445        47  POPC      C13            56.5453832622       23.2626679539       61.6029910297  MEMB      41              0.0000000000
      5446        47  POPC      H13A           55.8199881164       22.9820742901       60.8610949989  MEMB      41              0.0000000000
      5447        47  POPC      H13B           56.3591276608       24.2422731892       62.0059203500  MEMB      41              0.0000000000
      5448        47  POPC      H13C           57.5062470157       23.3332960148       61.0657057060  MEMB      41              0.0000000000
      5449        47  POPC      C14            55.4722184300       22.1498266081       63.5324319797  MEMB      41              0.0000000000
      5450        47  POPC      H14A           55.3068292534       23.0996543614       64.0465106811  MEMB      41              0.0000000000
      5451        47  POPC      H14B           54.6075495366       21.9220148547       62.9388502189  MEMB      41              0.0000000000
      5452        47  POPC      H14C           55.5884891994       21.4156304540       64.3234285287  MEMB      41              0.0000000000
      5453        47  POPC      C15            57.8313918317       22.6553318608       63.5403702681  MEMB      41              0.0000000000
      5454        47  POPC      H15A           58.3620502761       21.7845639764       63.9094048856  MEMB      41              0.0000000000
      5455        47  POPC      H15B           57.5365217380       23.2998714722       64.3479174123  MEMB      41              0.0000000000
      5456        47  POPC      H15C           58.5530372259       23.1722486024       62.9114317055  MEMB      41              0.0000000000
      5457        47  POPC      C11            58.2641937692       20.8836879066       61.0524806518  MEMB      41              0.0000000000
      5458        47  POPC      H11A           57.9990181195       21.4415237985       60.1238207417  MEMB      41              0.0000000000
      5459        47  POPC      H11B           58.4301832927       19.8263889043       60.7387265043  MEMB      41              0.0000000000
      5460        47  POPC      P              60.2985531556       22.5659781018       61.0936927546  MEMB      41              0.0000000000
      5461        47  POPC      O13            61.2427201343       23.0406793628       62.1335584230  MEMB      41              0.0000000000
      5462        47  POPC      O14            59.3428700580       23.5646395346       60.5769885258  MEMB      41              0.0000000000
      5463        47  POPC      O12            59.4535417643       21.3650229121       61.6789881537  MEMB      41              0.0000000000
      5464        47  POPC      O11            61.1081698431       21.9055912395       59.9221705795  MEMB      41              0.0000000000
      5465        47  POPC      C1             61.4223910401       20.5121218333       59.9072477565  MEMB      41              0.0000000000
      5466        47  POPC      HA             60.7641200392       19.8828953016       60.5526141984  MEMB      41              0.0000000000
      5467        47  POPC      HB             62.4480443782       20.3486888427       60.2991518847  MEMB      41              0.0000000000
      5468        47  POPC      C2             61.3224556343       19.9272491420       58.4749184393  MEMB      41              0.0000000000
      5469        47  POPC      HS             61.7486044093       18.9016530259       58.5162642759  MEMB      41              0.0000000000
      5470        47  POPC      O21            62.0384376326       20.6613907876       57.4923154834  MEMB      41              0.0000000000
      5471        47  POPC      C21            63.2233663431       21.1216615729       57.7361754236  MEMB      41              0.0000000000
      5472        47  POPC      O22            64.0423962570       20.7592930128       58.5664853108  MEMB      41              0.0000000000
      5473        47  POPC      C22            63.5105600587       22.1079775448       56.6215482398  MEMB      41              0.0000000000
      5474        47  POPC      H2R            62.8133849736       21.9490537680       55.7715011139  MEMB      41              0.0000000000
      5475        47  POPC      H2S            64.5193834662       21.8085843815       56.2816948026  MEMB      41              0.0000000000
      5476        47  POPC      C3             59.8542107654       19.7933788732       57.9484946901  MEMB      41              0.0000000000
      5477        47  POPC      HX             59.2824389028       19.2141784108       58.7098374637  MEMB      41              0.0000000000
      5478        47  POPC      HY             59.9480272445       19.1855788787       57.0299059707  MEMB      41              0.0000000000
      5479        47  POPC      O31            59.1996021209       21.0407005836       57.5798111423  MEMB      41              0.0000000000
      5480        47  POPC      C31            57.9026648583       20.8740244850       57.2949412791  MEMB      41              0.0000000000
      5481        47  POPC      O32            57.2780132930       19.8482971896       57.4942269069  MEMB      41              0.0000000000
      5482        47  POPC      C32            57.3261277931       22.1095742028       56.6186897053  MEMB      41              0.0000000000
      5483        47  POPC      H2X            58.1516931781       22.7914332948       56.3333295132  MEMB      41              0.0000000000
      5484        47  POPC      H2Y            56.6764269438       22.6245217067       57.3520745968  MEMB      41              0.0000000000
      5485        47  POPC      C23            63.4936009822       23.5937303083       57.0468179214  MEMB      41              0.0000000000
      5486        47  POPC      H3R            63.8330653196       24.2210636699       56.1922203629  MEMB      41              0.0000000000
      5487        47  POPC      H3S            64.2186901208       23.7582397385       57.8732001167  MEMB      41              0.0000000000
      5488        47  POPC      C24            62.1215919494       24.1211122468       57.4951991302  MEMB      41              0.0000000000
      5489        47  POPC      H4R            62.2989404199       25.1128212046       57.9734373718  MEMB      41              0.0000000000
      5490        47  POPC      H4S            61.6882751783       23.4705037502       58.2807719083  MEMB      41              0.0000000000
      5491        47  POPC      C25            61.0797857491       24.3402806476       56.3861800100  MEMB      41              0.0000000000
      5492        47  POPC      H5R            60.6815139670       23.3696333740       56.0177335363  MEMB      41              0.0000000000
      5493        47  POPC      H5S            61.5829376083       24.8485572482       55.5371426619  MEMB      41              0.0000000000
      5494        47  POPC      C26            59.9297386006       25.2251727366       56.9038587325  MEMB      41              0.0000000000
      5495        47  POPC      H6R            60.3775960035       26.1308924611       57.3758975329  MEMB      41              0.0000000000
      5496        47  POPC      H6S            59.3888921745       24.6685857698       57.7038834851  MEMB      41              0.0000000000
      5497        47  POPC      C27            58.9181212973       25.6995920388       55.8431433591  MEMB      41              0.0000000000
      5498        47  POPC      H7R            58.2243121415       26.4199658423       56.3345939971  MEMB      41              0.0000000000
      5499        47  POPC      H7S            58.3128358545       24.8254973539       55.5282519361  MEMB      41              0.0000000000
      5500        47  POPC      C28            59.5656224634       26.3765057136       54.6151480320  MEMB      41              0.0000000000
      5501        47  POPC      H8R            60.1500927199       25.6120125423       54.0568819135  MEMB      41              0.0000000000
      5502        47  POPC      H8S            60.2969521106       27.1268223317       54.9924449792  MEMB      41              0.0000000000
      5503        47  POPC      C29            58.5936084896       27.0561303674       53.6818567637  MEMB      41              0.0000000000
      5504        47  POPC      H91            58.7312396854       28.1440836866       53.5747659190  MEMB      41              0.0000000000
      5505        47  POPC      C210           57.5933449187       26.4601260292       53.0066290095  MEMB      41              0.0000000000
      5506        47  POPC      H101           56.9551392429       27.0760931458       52.3522129331  MEMB      41              0.0000000000
      5507        47  POPC      C211           57.2374966809       24.9912597369       53.0408857261  MEMB      41              0.0000000000
      5508        47  POPC      H11R           56.3429290583       24.8414785003       53.6827111659  MEMB      41              0.0000000000
      5509        47  POPC      H11S           58.0572288977       24.3798796830       53.4770495593  MEMB      41              0.0000000000
      5510        47  POPC      C212           56.9282851969       24.4048011029       51.6525524525  MEMB      41              0.0000000000
      5511        47  POPC      H12R           56.1439756394       24.9893768620       51.1353019039  MEMB      41              0.0000000000
      5512        47  POPC      H12S           56.5243155596       23.3792390509       51.7748486608  MEMB      41              0.0000000000
      5513        47  POPC      C213           58.1745207911       24.3430431188       50.7785995575  MEMB      41              0.0000000000
      5514        47  POPC      H13R           58.9388214239       23.7233198484       51.3012656554  MEMB      41              0.0000000000
      5515        47  POPC      H13S           58.5913495550       25.3695553460       50.6664206523  MEMB      41              0.0000000000
      5516        47  POPC      C214           57.9344702272       23.7767387394       49.3774750257  MEMB      41              0.0000000000
      5517        47  POPC      H14R           57.1997977749       24.3981675669       48.8252996171  MEMB      41              0.0000000000
      5518        47  POPC      H14S           57.5263844362       22.7532102904       49.4350397904  MEMB      41              0.0000000000
      5519        47  POPC      C215           59.2746808739       23.7334005270       48.6605320900  MEMB      41              0.0000000000
      5520        47  POPC      H15R           59.9648776515       23.1411955004       49.3088797372  MEMB      41              0.0000000000
      5521        47  POPC      H15S           59.6645482368       24.7752011136       48.6107020857  MEMB      41              0.0000000000
      5522        47  POPC      C216           59.2940281881       23.0992328310       47.2704881921  MEMB      41              0.0000000000
      5523        47  POPC      H16R           58.3446672508       22.5706522251       47.0429034212  MEMB      41              0.0000000000
      5524        47  POPC      H16S           60.1119759586       22.3443855670       47.2665128603  MEMB      41              0.0000000000
      5525        47  POPC      C217           59.6257936223       24.1036356781       46.1693483332  MEMB      41              0.0000000000
      5526        47  POPC      H17R           60.3539073493       24.8530499645       46.5596165409  MEMB      41              0.0000000000
      5527        47  POPC      H17S           58.6935200564       24.6338698412       45.8927757001  MEMB      41              0.0000000000
      5528        47  POPC      C218           60.2208482250       23.4536742932       44.9289126654  MEMB      41              0.0000000000
      5529        47  POPC      H18R           61.0404113561       22.7561038004       45.2087895838  MEMB      41              0.0000000000
      5530        47  POPC      H18S           60.6298268612       24.2217670884       44.2473094564  MEMB      41              0.0000000000
      5531        47  POPC      H18T           59.4558811753       22.8958543312       44.3654344615  MEMB      41              0.0000000000
      5532        47  POPC      C33            56.5126272466       21.7027962125       55.3665547945  MEMB      41              0.0000000000
      5533        47  POPC      H3X            55.9325473845       22.5843584880       55.0097168557  MEMB      41              0.0000000000
      5534        47  POPC      H3Y            55.7771669074       20.9029592418       55.6121914128  MEMB      41              0.0000000000
      5535        47  POPC      C34            57.4198224352       21.2331635849       54.2209125804  MEMB      41              0.0000000000
      5536        47  POPC      H4X            58.0315247151       20.3663284854       54.5564130368  MEMB      41              0.0000000000
      5537        47  POPC      H4Y            58.1227258509       22.0591494031       53.9664107610  MEMB      41              0.0000000000
      5538        47  POPC      C35            56.6555862747       20.8201442947       52.9543071769  MEMB      41              0.0000000000
      5539        47  POPC      H5X            55.9269658481       21.6149383615       52.6891075697  MEMB      41              0.0000000000
      5540        47  POPC      H5Y            56.0735028480       19.8928025418       53.1510015035  MEMB      41              0.0000000000
      5541        47  POPC      C36            57.6185853243       20.5794353158       51.7843679385  MEMB      41              0.0000000000
      5542        47  POPC      H6X            58.2486132209       19.6939706832       52.0192189487  MEMB      41              0.0000000000
      5543        47  POPC      H6Y            58.3013657731       21.4550972212       51.6904055117  MEMB      41              0.0000000000
      5544        47  POPC      C37            56.9376714519       20.3514787934       50.4269364909  MEMB      41              0.0000000000
      5545        47  POPC      H7X            56.3693320991       21.2628580167       50.1423863253  MEMB      41              0.0000000000
      5546        47  POPC      H7Y            56.1978392220       19.5270811242       50.4995523921  MEMB      41              0.0000000000
      5547        47  POPC      C38            57.9841382998       20.0144032085       49.3523630916  MEMB      41              0.0000000000
      5548        47  POPC      H8X            58.4739104432       19.0544910975       49.6291449203  MEMB      41              0.0000000000
      5549        47  POPC      H8Y            58.7736254620       20.8008221367       49.3553712771  MEMB      41              0.0000000000
      5550        47  POPC      C39            57.4186252489       19.8863160042       47.9325361181  MEMB      41              0.0000000000
      5551        47  POPC      H9X            56.9202749411       20.8390969293       47.6461620653  MEMB      41              0.0000000000
      5552        47  POPC      H9Y            56.6510267367       19.0812656515       47.9157164449  MEMB      41              0.0000000000
      5553        47  POPC      C310           58.5141226651       19.5647434993       46.9026967483  MEMB      41              0.0000000000
      5554        47  POPC      H10X           59.0183495051       18.6240125648       47.2006539413  MEMB      41              0.0000000000
      5555        47  POPC      H10Y           59.2801700641       20.3659930503       46.9232282077  MEMB      41              0.0000000000
      5556        47  POPC      C311           57.9670475108       19.4431508785       45.4755194311  MEMB      41              0.0000000000
      5557        47  POPC      H11X           57.5463087853       20.4311317169       45.1845557561  MEMB      41              0.0000000000
      5558        47  POPC      H11Y           57.1329092489       18.7069489387       45.4761520135  MEMB      41              0.0000000000
      5559        47  POPC      C312           58.9951290665       19.0014807202       44.4146804814  MEMB      41              0.0000000000
      5560        47  POPC      H12X           58.4788198576       19.0163858873       43.4290955056  MEMB      41              0.0000000000
      5561        47  POPC      H12Y           59.2833723977       17.9522504448       44.6202015162  MEMB      41              0.0000000000
      5562        47  POPC      C313           60.2486600710       19.8924950144       44.3198450787  MEMB      41              0.0000000000
      5563        47  POPC      H13X           60.7689288266       19.9087139174       45.3026623701  MEMB      41              0.0000000000
      5564        47  POPC      H13Y           59.8913235528       20.9215356756       44.1497662823  MEMB      41              0.0000000000
      5565        47  POPC      C314           61.2974724141       19.5563854891       43.2274661415  MEMB      41              0.0000000000
      5566        47  POPC      H14X           62.1618791890       19.0502094045       43.7081417668  MEMB      41              0.0000000000
      5567        47  POPC      H14Y           61.7104395721       20.5104209326       42.8282656230  MEMB      41              0.0000000000
      5568        47  POPC      C315           60.8450535584       18.6742138166       42.0505155068  MEMB      41              0.0000000000
      5569        47  POPC      H15X           60.4466062119       19.3298894631       41.2454768184  MEMB      41              0.0000000000
      5570        47  POPC      H15Y           60.0294889629       17.9830746958       42.3548344666  MEMB      41              0.0000000000
      5571        47  POPC      C316           61.9709389512       17.7992669370       41.4905799639  MEMB      41              0.0000000000
      5572        47  POPC      H16X           62.8532372175       18.4104020835       41.2205027613  MEMB      41              0.0000000000
      5573        47  POPC      H16Y           61.6261925294       17.2503982390       40.5881748325  MEMB      41              0.0000000000
      5574        47  POPC      H16Z           62.3035300178       17.0566444663       42.2459656918  MEMB      41              0.0000000000
      5575        48  POPC      N              16.1025040019       54.9407091865       61.1899097524  MEMB      42              0.0000000000
      5576        48  POPC      C12            16.1174233511       56.0951107341       62.1795843358  MEMB      42              0.0000000000
      5577        48  POPC      H12A           16.2621952138       57.0038742183       61.6022958149  MEMB      42              0.0000000000
      5578        48  POPC      H12B           16.9678709030       55.9861078390       62.8432217833  MEMB      42              0.0000000000
      5579        48  POPC      C13            15.0010404208       55.1286101746       60.1994951868  MEMB      42              0.0000000000
      5580        48  POPC      H13A           15.1045858355       56.0984772613       59.7104408153  MEMB      42              0.0000000000
      5581        48  POPC      H13B           14.9889364898       54.3511818238       59.4507354453  MEMB      42              0.0000000000
      5582        48  POPC      H13C           14.0474088884       55.2094947513       60.7235757972  MEMB      42              0.0000000000
      5583        48  POPC      C14            17.3823522656       54.9449766136       60.4430406855  MEMB      42              0.0000000000
      5584        48  POPC      H14A           17.4112785606       54.1178310811       59.7398099600  MEMB      42              0.0000000000
      5585        48  POPC      H14B           17.4814596911       55.8598468622       59.8724537653  MEMB      42              0.0000000000
      5586        48  POPC      H14C           18.2561698045       54.7843419478       61.0893405652  MEMB      42              0.0000000000
      5587        48  POPC      C15            15.9555422613       53.6257702573       61.8908261191  MEMB      42              0.0000000000
      5588        48  POPC      H15A           16.8372303060       53.4493865674       62.5049236111  MEMB      42              0.0000000000
      5589        48  POPC      H15B           15.8657116375       52.8201242584       61.1692536311  MEMB      42              0.0000000000
      5590        48  POPC      H15C           15.0676650398       53.6560053935       62.5117815583  MEMB      42              0.0000000000
      5591        48  POPC      C11            14.8638279161       56.3475239398       63.0490202715  MEMB      42              0.0000000000
      5592        48  POPC      H11A           15.0906924415       57.1903809433       63.7456720947  MEMB      42              0.0000000000
      5593        48  POPC      H11B           14.6592562624       55.4660465885       63.6940037414  MEMB      42              0.0000000000
      5594        48  POPC      P              13.4249565968       58.1060162226       61.7667034608  MEMB      42              0.0000000000
      5595        48  POPC      O13            12.7510801997       58.7705902412       62.8946151937  MEMB      42              0.0000000000
      5596        48  POPC      O14            12.7352619659       58.0488211329       60.4678616595  MEMB      42              0.0000000000
      5597        48  POPC      O12            13.7253857611       56.6294509684       62.2417533736  MEMB      42              0.0000000000
      5598        48  POPC      O11            14.8639922622       58.7575089566       61.6083693246  MEMB      42              0.0000000000
      5599        48  POPC      C1             15.0384788297       59.7142230033       60.5508919974  MEMB      42              0.0000000000
      5600        48  POPC      HA             15.5511751356       60.6114361627       60.9608998701  MEMB      42              0.0000000000
      5601        48  POPC      HB             14.0872147557       60.0926838365       60.0943737768  MEMB      42              0.0000000000
      5602        48  POPC      C2             15.9076848762       59.0996177602       59.4362925474  MEMB      42              0.0000000000
      5603        48  POPC      HS             16.0643165640       59.8733642977       58.6443851755  MEMB      42              0.0000000000
      5604        48  POPC      O21            15.2914669109       57.8872736048       58.9184849020  MEMB      42              0.0000000000
      5605        48  POPC      C21            14.5370821613       58.0785071315       57.8364188351  MEMB      42              0.0000000000
      5606        48  POPC      O22            14.4844427841       59.1075814159       57.1886238136  MEMB      42              0.0000000000
      5607        48  POPC      C22            13.8198877197       56.7778187058       57.4393452641  MEMB      42              0.0000000000
      5608        48  POPC      H2R            13.1399511422       56.5060047758       58.2739942324  MEMB      42              0.0000000000
      5609        48  POPC      H2S            14.5861194643       55.9874489418       57.3203699569  MEMB      42              0.0000000000
      5610        48  POPC      C3             17.3162840884       58.7721763855       59.9888636782  MEMB      42              0.0000000000
      5611        48  POPC      HX             17.2240466450       58.1561682942       60.9026206375  MEMB      42              0.0000000000
      5612        48  POPC      HY             17.8073818651       59.7242797615       60.2997723133  MEMB      42              0.0000000000
      5613        48  POPC      O31            18.0284164872       58.0369035721       58.9798462151  MEMB      42              0.0000000000
      5614        48  POPC      C31            18.8997214773       58.7336272857       58.2898896678  MEMB      42              0.0000000000
      5615        48  POPC      O32            19.6149386720       59.6195259950       58.7281299511  MEMB      42              0.0000000000
      5616        48  POPC      C32            18.8558051701       58.2424275535       56.8384427709  MEMB      42              0.0000000000
      5617        48  POPC      H2X            19.2588079156       57.2072083761       56.8914114752  MEMB      42              0.0000000000
      5618        48  POPC      H2Y            19.5173207636       58.8904414979       56.2324825917  MEMB      42              0.0000000000
      5619        48  POPC      C23            13.0028214474       56.9331714442       56.1274693343  MEMB      42              0.0000000000
      5620        48  POPC      H3R            13.5590297214       57.5836766498       55.4139458022  MEMB      42              0.0000000000
      5621        48  POPC      H3S            12.0392829918       57.4409367127       56.3603556654  MEMB      42              0.0000000000
      5622        48  POPC      C24            12.7068919410       55.6132722756       55.3900256642  MEMB      42              0.0000000000
      5623        48  POPC      H4R            12.4218229934       54.8422958896       56.1414906323  MEMB      42              0.0000000000
      5624        48  POPC      H4S            13.6258208492       55.2591363536       54.8736844251  MEMB      42              0.0000000000
      5625        48  POPC      C25            11.5480822633       55.7344614567       54.3777852731  MEMB      42              0.0000000000
      5626        48  POPC      H5R            10.6467610002       56.0630297655       54.9447397173  MEMB      42              0.0000000000
      5627        48  POPC      H5S            11.3151164354       54.7297194465       53.9575586287  MEMB      42              0.0000000000
      5628        48  POPC      C26            11.7640108006       56.7276740595       53.2157199643  MEMB      42              0.0000000000
      5629        48  POPC      H6R            12.1589340742       57.6922703181       53.5983742258  MEMB      42              0.0000000000
      5630        48  POPC      H6S            10.7635799626       56.9369486660       52.7711371865  MEMB      42              0.0000000000
      5631        48  POPC      C27            12.6747593299       56.1915658459       52.0954801049  MEMB      42              0.0000000000
      5632        48  POPC      H7R            12.3553768032       55.1474710955       51.8713881109  MEMB      42              0.0000000000
      5633        48  POPC      H7S            13.7255250093       56.1453978124       52.4568933293  MEMB      42              0.0000000000
      5634        48  POPC      C28            12.6023154279       56.9942184096       50.7733600984  MEMB      42              0.0000000000
      5635        48  POPC      H8R            11.5437864442       57.0070770024       50.4314901929  MEMB      42              0.0000000000
      5636        48  POPC      H8S            13.1764724818       56.4187523841       50.0113878871  MEMB      42              0.0000000000
      5637        48  POPC      C29            13.1243045153       58.4101284985       50.8590904617  MEMB      42              0.0000000000
      5638        48  POPC      H91            13.2124020850       58.8172202670       51.8797841333  MEMB      42              0.0000000000
      5639        48  POPC      C210           13.5102524527       59.1685641726       49.8111535433  MEMB      42              0.0000000000
      5640        48  POPC      H101           13.9067328417       60.1775299554       50.0007669704  MEMB      42              0.0000000000
      5641        48  POPC      C211           13.4996508812       58.7564756877       48.3569785392  MEMB      42              0.0000000000
      5642        48  POPC      H11R           13.4804755461       57.6480106675       48.2664373428  MEMB      42              0.0000000000
      5643        48  POPC      H11S           14.4412374048       59.0960494889       47.8802923609  MEMB      42              0.0000000000
      5644        48  POPC      C212           12.3491983546       59.2930545726       47.4857045273  MEMB      42              0.0000000000
      5645        48  POPC      H12R           11.3962275705       59.2149287644       48.0553904060  MEMB      42              0.0000000000
      5646        48  POPC      H12S           12.2432439688       58.6469591550       46.5856303030  MEMB      42              0.0000000000
      5647        48  POPC      C213           12.5511066798       60.7419860863       47.0179058097  MEMB      42              0.0000000000
      5648        48  POPC      H13R           12.9117659723       61.3505538414       47.8762121133  MEMB      42              0.0000000000
      5649        48  POPC      H13S           11.5496099889       61.1261057770       46.7398079035  MEMB      42              0.0000000000
      5650        48  POPC      C214           13.5040127847       60.9422128666       45.8179426737  MEMB      42              0.0000000000
      5651        48  POPC      H14R           14.5162047349       60.5651731694       46.0813606450  MEMB      42              0.0000000000
      5652        48  POPC      H14S           13.5983617777       62.0403391664       45.6448760091  MEMB      42              0.0000000000
      5653        48  POPC      C215           13.0546077464       60.2994433656       44.4875679418  MEMB      42              0.0000000000
      5654        48  POPC      H15R           13.1208499369       59.1924860144       44.5580358053  MEMB      42              0.0000000000
      5655        48  POPC      H15S           13.7702636287       60.6231874260       43.6954124427  MEMB      42              0.0000000000
      5656        48  POPC      C216           11.6335731498       60.7047481488       44.0564106006  MEMB      42              0.0000000000
      5657        48  POPC      H16R           11.5887436337       61.8171660279       44.1063583994  MEMB      42              0.0000000000
      5658        48  POPC      H16S           10.8747893252       60.2960209897       44.7586709077  MEMB      42              0.0000000000
      5659        48  POPC      C217           11.2677366165       60.3164393406       42.6160746125  MEMB      42              0.0000000000
      5660        48  POPC      H17R           12.1987796638       60.2876658408       42.0105458669  MEMB      42              0.0000000000
      5661        48  POPC      H17S           10.6350704918       61.1351071349       42.1993769281  MEMB      42              0.0000000000
      5662        48  POPC      C218           10.4883596956       59.0062922125       42.4626207695  MEMB      42              0.0000000000
      5663        48  POPC      H18R            9.5869474233       59.0132088443       43.1131718184  MEMB      42              0.0000000000
      5664        48  POPC      H18S           11.1155048050       58.1285561999       42.7252358827  MEMB      42              0.0000000000
      5665        48  POPC      H18T           10.1450329375       58.8862448553       41.4110175161  MEMB      42              0.0000000000
      5666        48  POPC      C33            17.4484576096       58.1343310926       56.1804260038  MEMB      42              0.0000000000
      5667        48  POPC      H3X            16.9866714449       59.1206968943       55.9747277098  MEMB      42              0.0000000000
      5668        48  POPC      H3Y            16.8099800981       57.6128462725       56.9260055146  MEMB      42              0.0000000000
      5669        48  POPC      C34            17.3908541787       57.2079290006       54.9458500308  MEMB      42              0.0000000000
      5670        48  POPC      H4X            16.5279250501       56.5132554060       55.0793278516  MEMB      42              0.0000000000
      5671        48  POPC      H4Y            18.3053344942       56.5762100125       54.9509573593  MEMB      42              0.0000000000
      5672        48  POPC      C35            17.2261863291       57.8213078990       53.5316837876  MEMB      42              0.0000000000
      5673        48  POPC      H5X            17.8555132029       58.7275265225       53.4097191070  MEMB      42              0.0000000000
      5674        48  POPC      H5Y            16.1603306075       58.0984485470       53.3638343120  MEMB      42              0.0000000000
      5675        48  POPC      C36            17.6423675996       56.7380168388       52.5141413448  MEMB      42              0.0000000000
      5676        48  POPC      H6X            17.0584037823       55.8323508155       52.7828444985  MEMB      42              0.0000000000
      5677        48  POPC      H6Y            18.7144755737       56.5235603910       52.7041106670  MEMB      42              0.0000000000
      5678        48  POPC      C37            17.4756120446       56.9665541345       51.0004621556  MEMB      42              0.0000000000
      5679        48  POPC      H7X            18.4561838080       56.7480899261       50.5138577712  MEMB      42              0.0000000000
      5680        48  POPC      H7Y            17.2191980999       58.0221762754       50.7804296509  MEMB      42              0.0000000000
      5681        48  POPC      C38            16.4541318300       55.9982849341       50.3712515111  MEMB      42              0.0000000000
      5682        48  POPC      H8X            15.4382477488       56.3122906528       50.6976638310  MEMB      42              0.0000000000
      5683        48  POPC      H8Y            16.6256394462       54.9705586187       50.7681162025  MEMB      42              0.0000000000
      5684        48  POPC      C39            16.4884566003       55.9015951614       48.8292334902  MEMB      42              0.0000000000
      5685        48  POPC      H9X            15.5400816210       55.4026179527       48.5326936680  MEMB      42              0.0000000000
      5686        48  POPC      H9Y            17.3238242655       55.2406144802       48.5138724457  MEMB      42              0.0000000000
      5687        48  POPC      C310           16.6418967743       57.2601628913       48.1210147013  MEMB      42              0.0000000000
      5688        48  POPC      H10X           17.7080332909       57.5737807393       48.1943551431  MEMB      42              0.0000000000
      5689        48  POPC      H10Y           16.0571649087       58.0011871491       48.7044945171  MEMB      42              0.0000000000
      5690        48  POPC      C311           16.2116896326       57.3437510455       46.6322365641  MEMB      42              0.0000000000
      5691        48  POPC      H11X           17.1080187840       57.2988111028       45.9842334482  MEMB      42              0.0000000000
      5692        48  POPC      H11Y           15.7697317222       58.3468589708       46.4457968338  MEMB      42              0.0000000000
      5693        48  POPC      C312           15.2251804602       56.2686098567       46.1517127238  MEMB      42              0.0000000000
      5694        48  POPC      H12X           14.2800098652       56.3473956145       46.7322640070  MEMB      42              0.0000000000
      5695        48  POPC      H12Y           15.6573872876       55.2611189103       46.3405063257  MEMB      42              0.0000000000
      5696        48  POPC      C313           14.8888916164       56.3452672904       44.6544143361  MEMB      42              0.0000000000
      5697        48  POPC      H13X           14.4452955368       57.3337074165       44.4056004928  MEMB      42              0.0000000000
      5698        48  POPC      H13Y           14.1139998283       55.5718725625       44.4640028492  MEMB      42              0.0000000000
      5699        48  POPC      C314           16.0824963781       56.0569582851       43.7341547471  MEMB      42              0.0000000000
      5700        48  POPC      H14X           16.6103699161       55.1511609492       44.1043049495  MEMB      42              0.0000000000
      5701        48  POPC      H14Y           16.7942543831       56.9124644282       43.7674860198  MEMB      42              0.0000000000
      5702        48  POPC      C315           15.6733191294       55.7926087214       42.2797432468  MEMB      42              0.0000000000
      5703        48  POPC      H15X           16.5916042131       55.7556612173       41.6502760113  MEMB      42              0.0000000000
      5704        48  POPC      H15Y           15.0686801058       56.6540660278       41.9314885660  MEMB      42              0.0000000000
      5705        48  POPC      C316           14.8823973595       54.4956810641       42.0783559060  MEMB      42              0.0000000000
      5706        48  POPC      H16X           15.4302690364       53.6384613824       42.5242632856  MEMB      42              0.0000000000
      5707        48  POPC      H16Y           14.7346341905       54.2902020658       40.9995762210  MEMB      42              0.0000000000
      5708        48  POPC      H16Z           13.8806427070       54.5601762248       42.5531453059  MEMB      42              0.0000000000
      5709        49  POPS      N              24.0289660661        3.7089558595       61.3511291563  MEMB      43              0.0000000000
      5710        49  POPS      HN1            24.7773430252        3.7212182898       60.6308427783  MEMB      43              0.0000000000
      5711        49  POPS      HN2            23.2887902246        2.9890545358       61.1341118207  MEMB      43              0.0000000000
      5712        49  POPS      HN3            23.6191669463        4.6578780529       61.4129216352  MEMB      43              0.0000000000
      5713        49  POPS      C12            24.6757933023        3.4001350465       62.6759972962  MEMB      43              0.0000000000
      5714        49  POPS      H12A           24.0344840899        3.7823734768       63.4513225862  MEMB      43              0.0000000000
      5715        49  POPS      C13            26.0637576956        4.0269384727       62.8574888489  MEMB      43              0.0000000000
      5716        49  POPS      O13A           26.5277705836        4.7310896309       61.9208046523  MEMB      43              0.0000000000
      5717        49  POPS      O13B           26.6899256447        3.7782319685       63.9276722901  MEMB      43              0.0000000000
      5718        49  POPS      C11            24.8867859700        1.8764092471       62.8907100109  MEMB      43              0.0000000000
      5719        49  POPS      H11A           25.3335379501        1.7488926591       63.9044562723  MEMB      43              0.0000000000
      5720        49  POPS      H11B           25.6414721231        1.4852399446       62.1671457581  MEMB      43              0.0000000000
      5721        49  POPS      P              23.0443901427        0.5502203640       61.5834132088  MEMB      43              0.0000000000
      5722        49  POPS      O13            22.1560248990        1.5918351747       61.0451427304  MEMB      43              0.0000000000
      5723        49  POPS      O14            22.4711573970       -0.7714406631       61.9127678700  MEMB      43              0.0000000000
      5724        49  POPS      O12            23.6615647076        1.1539065916       62.8946142262  MEMB      43              0.0000000000
      5725        49  POPS      O11            24.2547233348        0.4532109436       60.5798830790  MEMB      43              0.0000000000
      5726        49  POPS      C1             24.0223953411        0.5217119458       59.1634552719  MEMB      43              0.0000000000
      5727        49  POPS      HA             22.9404301144        0.5268819853       58.8803196413  MEMB      43              0.0000000000
      5728        49  POPS      HB             24.4376002174       -0.4135701717       58.7302780516  MEMB      43              0.0000000000
      5729        49  POPS      C2             24.7104422867        1.7499223983       58.4612053049  MEMB      43              0.0000000000
      5730        49  POPS      HS             25.3466294706        2.2708639137       59.2108879665  MEMB      43              0.0000000000
      5731        49  POPS      O21            23.6876292488        2.6483472920       57.9519536291  MEMB      43              0.0000000000
      5732        49  POPS      C21            24.0986746906        3.7604341197       57.3006968277  MEMB      43              0.0000000000
      5733        49  POPS      O22            25.2197591021        4.2187530323       57.3674986358  MEMB      43              0.0000000000
      5734        49  POPS      C22            22.8948811425        4.3751499931       56.5545428447  MEMB      43              0.0000000000
      5735        49  POPS      H2R            22.1653830932        4.6699738257       57.3373901556  MEMB      43              0.0000000000
      5736        49  POPS      H2S            22.4283901993        3.5915161982       55.9275766353  MEMB      43              0.0000000000
      5737        49  POPS      C3             25.6544683819        1.2239393165       57.3280110273  MEMB      43              0.0000000000
      5738        49  POPS      HX             26.5403135466        0.7981774164       57.8458953571  MEMB      43              0.0000000000
      5739        49  POPS      HY             26.0459961876        2.0404587512       56.6815275483  MEMB      43              0.0000000000
      5740        49  POPS      O31            25.0342033441        0.1599445776       56.5701166513  MEMB      43              0.0000000000
      5741        49  POPS      C31            24.1457375079        0.5950769272       55.6894906050  MEMB      43              0.0000000000
      5742        49  POPS      O32            24.0289416325        1.7439112263       55.3116403568  MEMB      43              0.0000000000
      5743        49  POPS      C32            23.2751338714       -0.5332609739       55.1726891076  MEMB      43              0.0000000000
      5744        49  POPS      H2X            22.5812353594       -0.8564265564       55.9765095289  MEMB      43              0.0000000000
      5745        49  POPS      H2Y            23.9314931556       -1.3806534153       54.8942461100  MEMB      43              0.0000000000
      5746        49  POPS      C23            23.2122527481        5.6305892218       55.7029028916  MEMB      43              0.0000000000
      5747        49  POPS      H3R            24.0873093847        6.1548084407       56.1189426454  MEMB      43              0.0000000000
      5748        49  POPS      H3S            22.3557603697        6.3361835745       55.7882013272  MEMB      43              0.0000000000
      5749        49  POPS      C24            23.4712629079        5.4268854248       54.1963118834  MEMB      43              0.0000000000
      5750        49  POPS      H4R            23.9668398780        6.3562254684       53.8293231338  MEMB      43              0.0000000000
      5751        49  POPS      H4S            22.5073042116        5.3330935771       53.6502944532  MEMB      43              0.0000000000
      5752        49  POPS      C25            24.3592806017        4.2343324550       53.8213011223  MEMB      43              0.0000000000
      5753        49  POPS      H5R            23.6932275827        3.3775767537       53.5756739000  MEMB      43              0.0000000000
      5754        49  POPS      H5S            25.0101677763        3.9385775806       54.6744454834  MEMB      43              0.0000000000
      5755        49  POPS      C26            25.2840748057        4.5131313878       52.6313565906  MEMB      43              0.0000000000
      5756        49  POPS      H6R            26.2097088776        4.9815263733       53.0387220908  MEMB      43              0.0000000000
      5757        49  POPS      H6S            24.8150826226        5.2697622696       51.9710114895  MEMB      43              0.0000000000
      5758        49  POPS      C27            25.6781840316        3.2435057786       51.8452901134  MEMB      43              0.0000000000
      5759        49  POPS      H7R            25.8655712926        2.4234362374       52.5749002130  MEMB      43              0.0000000000
      5760        49  POPS      H7S            26.6461209562        3.4322249672       51.3361142841  MEMB      43              0.0000000000
      5761        49  POPS      C28            24.6697742653        2.7494408151       50.7773886726  MEMB      43              0.0000000000
      5762        49  POPS      H8R            23.9852392962        2.0439764949       51.2943128982  MEMB      43              0.0000000000
      5763        49  POPS      H8S            25.2233716760        2.1292077353       50.0370947924  MEMB      43              0.0000000000
      5764        49  POPS      C29            23.9085968566        3.8358703097       50.0506730171  MEMB      43              0.0000000000
      5765        49  POPS      H91            24.4877217294        4.3976875004       49.3008870352  MEMB      43              0.0000000000
      5766        49  POPS      C210           22.6076841520        4.1380755338       50.2195899400  MEMB      43              0.0000000000
      5767        49  POPS      H101           22.1692774827        4.9539672531       49.6223583921  MEMB      43              0.0000000000
      5768        49  POPS      C211           21.6417755515        3.4559715582       51.1589377857  MEMB      43              0.0000000000
      5769        49  POPS      H11R           21.3636197277        4.1502004869       51.9804084405  MEMB      43              0.0000000000
      5770        49  POPS      H11S           22.0867595284        2.5717861646       51.6627346323  MEMB      43              0.0000000000
      5771        49  POPS      C212           20.3401874493        2.9841454147       50.4757937076  MEMB      43              0.0000000000
      5772        49  POPS      H12R           19.7549686062        3.8405928855       50.0991518568  MEMB      43              0.0000000000
      5773        49  POPS      H12S           19.7264274389        2.5212418925       51.2813072354  MEMB      43              0.0000000000
      5774        49  POPS      C213           20.5241711740        1.9073407650       49.3911331848  MEMB      43              0.0000000000
      5775        49  POPS      H13R           19.5571191306        1.3703221604       49.2536511508  MEMB      43              0.0000000000
      5776        49  POPS      H13S           21.2596099912        1.1710297768       49.7820125342  MEMB      43              0.0000000000
      5777        49  POPS      C214           20.9996805340        2.3689333168       47.9997581251  MEMB      43              0.0000000000
      5778        49  POPS      H14R           21.9071856560        2.9988766283       48.0717896173  MEMB      43              0.0000000000
      5779        49  POPS      H14S           20.2146143441        2.9614605912       47.4864422018  MEMB      43              0.0000000000
      5780        49  POPS      C215           21.3749140924        1.1516909676       47.1464880292  MEMB      43              0.0000000000
      5781        49  POPS      H15R           20.4471652349        0.5734929775       46.9943980553  MEMB      43              0.0000000000
      5782        49  POPS      H15S           22.0665002466        0.5333637397       47.7549944924  MEMB      43              0.0000000000
      5783        49  POPS      C216           22.0562943004        1.4780593500       45.8081212231  MEMB      43              0.0000000000
      5784        49  POPS      H16R           22.4490163803        2.5180042267       45.8838754571  MEMB      43              0.0000000000
      5785        49  POPS      H16S           21.3146363305        1.4610486987       44.9825136182  MEMB      43              0.0000000000
      5786        49  POPS      C217           23.2653925858        0.5808840318       45.4621964816  MEMB      43              0.0000000000
      5787        49  POPS      H17R           23.9738183784        0.6368769291       46.3177023496  MEMB      43              0.0000000000
      5788        49  POPS      H17S           23.7781585801        1.0254237672       44.5777528645  MEMB      43              0.0000000000
      5789        49  POPS      C218           22.9976741404       -0.9000407232       45.1676122901  MEMB      43              0.0000000000
      5790        49  POPS      H18R           22.3404339387       -1.0136346194       44.2815847771  MEMB      43              0.0000000000
      5791        49  POPS      H18S           22.5171883977       -1.3959128894       46.0367033238  MEMB      43              0.0000000000
      5792        49  POPS      H18T           23.9514299581       -1.4326095863       44.9612803500  MEMB      43              0.0000000000
      5793        49  POPS      C33            22.4892909457       -0.0031987802       53.9553381088  MEMB      43              0.0000000000
      5794        49  POPS      H3X            23.1472019290        0.5951449082       53.2816647320  MEMB      43              0.0000000000
      5795        49  POPS      H3Y            21.6838269044        0.6824845168       54.3090459707  MEMB      43              0.0000000000
      5796        49  POPS      C34            21.8739233926       -1.1175314074       53.1163041254  MEMB      43              0.0000000000
      5797        49  POPS      H4X            21.0584536471       -0.6777892572       52.4988313614  MEMB      43              0.0000000000
      5798        49  POPS      H4Y            21.4153962600       -1.8656016022       53.8040633018  MEMB      43              0.0000000000
      5799        49  POPS      C35            22.8755947302       -1.8111539034       52.1781236615  MEMB      43              0.0000000000
      5800        49  POPS      H5X            22.4839377178       -2.8339924958       51.9729960486  MEMB      43              0.0000000000
      5801        49  POPS      H5Y            23.8627025429       -1.9450317579       52.6697067690  MEMB      43              0.0000000000
      5802        49  POPS      C36            23.0503154871       -1.1118091494       50.8181799353  MEMB      43              0.0000000000
      5803        49  POPS      H6X            23.8497993616       -0.3446261315       50.8884422989  MEMB      43              0.0000000000
      5804        49  POPS      H6Y            22.1083377846       -0.5911560245       50.5410243342  MEMB      43              0.0000000000
      5805        49  POPS      C37            23.3544738886       -2.1353795530       49.7155196319  MEMB      43              0.0000000000
      5806        49  POPS      H7X            22.3927811520       -2.5829390879       49.3740872452  MEMB      43              0.0000000000
      5807        49  POPS      H7Y            23.9563668456       -2.9524862321       50.1629310663  MEMB      43              0.0000000000
      5808        49  POPS      C38            24.1206367710       -1.6196448548       48.4911893689  MEMB      43              0.0000000000
      5809        49  POPS      H8X            23.5803033101       -0.7783459503       48.0194304048  MEMB      43              0.0000000000
      5810        49  POPS      H8Y            24.1490554815       -2.4525437658       47.7515218750  MEMB      43              0.0000000000
      5811        49  POPS      C39            25.5642887318       -1.1865426330       48.7801395300  MEMB      43              0.0000000000
      5812        49  POPS      H9X            25.9979444466       -1.8629246432       49.5517763174  MEMB      43              0.0000000000
      5813        49  POPS      H9Y            25.5439880496       -0.1617043438       49.2099178007  MEMB      43              0.0000000000
      5814        49  POPS      C310           26.4523113400       -1.2443390120       47.5235586123  MEMB      43              0.0000000000
      5815        49  POPS      H10X           25.8272213855       -1.4832787148       46.6349501065  MEMB      43              0.0000000000
      5816        49  POPS      H10Y           27.1585391940       -2.0989018321       47.6430894890  MEMB      43              0.0000000000
      5817        49  POPS      C311           27.2609900825        0.0361622860       47.2515555226  MEMB      43              0.0000000000
      5818        49  POPS      H11X           28.3306400178       -0.2555501873       47.1509400272  MEMB      43              0.0000000000
      5819        49  POPS      H11Y           27.2020620812        0.7231065270       48.1227029358  MEMB      43              0.0000000000
      5820        49  POPS      C312           26.8486264450        0.7878955563       45.9730996844  MEMB      43              0.0000000000
      5821        49  POPS      H12X           26.0608480433        0.2277833638       45.4247761189  MEMB      43              0.0000000000
      5822        49  POPS      H12Y           27.7190141870        0.8383882381       45.2858032862  MEMB      43              0.0000000000
      5823        49  POPS      C313           26.3723104024        2.2248569755       46.2323775621  MEMB      43              0.0000000000
      5824        49  POPS      H13X           27.0604404802        2.7242946778       46.9491977937  MEMB      43              0.0000000000
      5825        49  POPS      H13Y           25.3706185618        2.1913298976       46.7132818804  MEMB      43              0.0000000000
      5826        49  POPS      C314           26.3079876584        3.0565853133       44.9424188362  MEMB      43              0.0000000000
      5827        49  POPS      H14X           26.1218131309        2.3761486878       44.0796809394  MEMB      43              0.0000000000
      5828        49  POPS      H14Y           27.2910157038        3.5488891819       44.7710443830  MEMB      43              0.0000000000
      5829        49  POPS      C315           25.2005657122        4.1146566812       44.9550568660  MEMB      43              0.0000000000
      5830        49  POPS      H15X           25.3240618458        4.7708993625       45.8461699998  MEMB      43              0.0000000000
      5831        49  POPS      H15Y           24.2196913100        3.5962350046       45.0524083054  MEMB      43              0.0000000000
      5832        49  POPS      C316           25.1845698754        4.9703319754       43.6862229485  MEMB      43              0.0000000000
      5833        49  POPS      H16X           24.3185354402        5.6645717176       43.6895032152  MEMB      43              0.0000000000
      5834        49  POPS      H16Y           25.1036658873        4.3267442324       42.7846078706  MEMB      43              0.0000000000
      5835        49  POPS      H16Z           26.1188197045        5.5700136819       43.6106517015  MEMB      43              0.0000000000
      5836        50  POPC      N              56.1007997916       13.8763149046       63.6171150683  MEMB      44              0.0000000000
      5837        50  POPC      C12            57.4688875023       13.3268070479       63.2070268788  MEMB      44              0.0000000000
      5838        50  POPC      H12A           57.4503613518       12.2558562134       63.3689073426  MEMB      44              0.0000000000
      5839        50  POPC      H12B           58.2443357279       13.7442689603       63.8406591652  MEMB      44              0.0000000000
      5840        50  POPC      C13            55.0039940572       13.1531378668       62.9107519018  MEMB      44              0.0000000000
      5841        50  POPC      H13A           55.0817133271       13.3369380057       61.8417721011  MEMB      44              0.0000000000
      5842        50  POPC      H13B           55.1016253531       12.0786883556       63.0169133308  MEMB      44              0.0000000000
      5843        50  POPC      H13C           54.0128996795       13.4674381201       63.2367897413  MEMB      44              0.0000000000
      5844        50  POPC      C14            55.8614826137       13.6930038534       65.0733073260  MEMB      44              0.0000000000
      5845        50  POPC      H14A           56.5213374053       14.2955719952       65.6861322642  MEMB      44              0.0000000000
      5846        50  POPC      H14B           54.8327712012       13.9366550865       65.2946265153  MEMB      44              0.0000000000
      5847        50  POPC      H14C           55.9844615141       12.6468171099       65.3545688598  MEMB      44              0.0000000000
      5848        50  POPC      C15            55.9657453134       15.3128841135       63.2360922077  MEMB      44              0.0000000000
      5849        50  POPC      H15A           56.7634682979       15.9006643623       63.6531502919  MEMB      44              0.0000000000
      5850        50  POPC      H15B           54.9967212464       15.6747884305       63.5586284101  MEMB      44              0.0000000000
      5851        50  POPC      H15C           55.9990435058       15.3867597078       62.1441459454  MEMB      44              0.0000000000
      5852        50  POPC      C11            57.9787981057       13.5336786061       61.7585410396  MEMB      44              0.0000000000
      5853        50  POPC      H11A           59.0167871075       13.1298433931       61.6787226951  MEMB      44              0.0000000000
      5854        50  POPC      H11B           58.0409682045       14.6306341246       61.5512328066  MEMB      44              0.0000000000
      5855        50  POPC      P              56.9524397463       13.4647329398       59.3872930196  MEMB      44              0.0000000000
      5856        50  POPC      O13            58.2664403902       13.6314917803       58.7246255333  MEMB      44              0.0000000000
      5857        50  POPC      O14            56.0882585629       14.6411692906       59.6077676112  MEMB      44              0.0000000000
      5858        50  POPC      O12            57.1549918132       12.8357979099       60.8357092756  MEMB      44              0.0000000000
      5859        50  POPC      O11            56.1079857764       12.2971697277       58.7146090380  MEMB      44              0.0000000000
      5860        50  POPC      C1             55.1234452528       11.7157942666       59.5869283629  MEMB      44              0.0000000000
      5861        50  POPC      HA             54.7131340787       12.4367647954       60.3380681225  MEMB      44              0.0000000000
      5862        50  POPC      HB             55.5782553089       10.8602013994       60.1291984237  MEMB      44              0.0000000000
      5863        50  POPC      C2             53.8473125886       11.2635357363       58.8411479824  MEMB      44              0.0000000000
      5864        50  POPC      HS             53.2774908437       10.6547746208       59.5705795879  MEMB      44              0.0000000000
      5865        50  POPC      O21            54.1284681114       10.5053449000       57.6666327820  MEMB      44              0.0000000000
      5866        50  POPC      C21            54.8326225834        9.4143622428       57.8537034026  MEMB      44              0.0000000000
      5867        50  POPC      O22            54.9332499076        8.7948417898       58.9010384627  MEMB      44              0.0000000000
      5868        50  POPC      C22            55.4995333841        9.0576791574       56.5368604495  MEMB      44              0.0000000000
      5869        50  POPC      H2R            54.6744023975        8.8485154497       55.8331853347  MEMB      44              0.0000000000
      5870        50  POPC      H2S            56.1009620459        8.1383619840       56.6499630605  MEMB      44              0.0000000000
      5871        50  POPC      C3             52.9667652534       12.4691448308       58.4296948725  MEMB      44              0.0000000000
      5872        50  POPC      HX             52.4981447865       12.8824285224       59.3482339028  MEMB      44              0.0000000000
      5873        50  POPC      HY             52.1539722661       12.0997734486       57.7688365174  MEMB      44              0.0000000000
      5874        50  POPC      O31            53.7532336682       13.5006149591       57.8139877229  MEMB      44              0.0000000000
      5875        50  POPC      C31            53.8378169980       13.4829566235       56.4957215541  MEMB      44              0.0000000000
      5876        50  POPC      O32            53.1230694832       12.8425688817       55.7434914670  MEMB      44              0.0000000000
      5877        50  POPC      C32            54.8436585180       14.5365942627       56.0426715659  MEMB      44              0.0000000000
      5878        50  POPC      H2X            55.2691555327       15.0560138250       56.9285911023  MEMB      44              0.0000000000
      5879        50  POPC      H2Y            54.2724647221       15.2767706821       55.4463692316  MEMB      44              0.0000000000
      5880        50  POPC      C23            56.3393621204       10.1903535944       55.9206123331  MEMB      44              0.0000000000
      5881        50  POPC      H3R            57.3934957413       10.0986825466       56.2500945787  MEMB      44              0.0000000000
      5882        50  POPC      H3S            55.9990220336       11.1929791701       56.2716531764  MEMB      44              0.0000000000
      5883        50  POPC      C24            56.2463134106       10.1880582302       54.3889225392  MEMB      44              0.0000000000
      5884        50  POPC      H4R            57.0479775196       10.8560372583       54.0278898881  MEMB      44              0.0000000000
      5885        50  POPC      H4S            55.2624251370       10.6098738958       54.0797112942  MEMB      44              0.0000000000
      5886        50  POPC      C25            56.4558504710        8.8246421694       53.7232347088  MEMB      44              0.0000000000
      5887        50  POPC      H5R            55.5488803386        8.1929775267       53.8341409006  MEMB      44              0.0000000000
      5888        50  POPC      H5S            57.2968393843        8.3034830197       54.2326697216  MEMB      44              0.0000000000
      5889        50  POPC      C26            56.8020479089        8.9688797203       52.2391282109  MEMB      44              0.0000000000
      5890        50  POPC      H6R            57.2564746488        8.0114743135       51.8953073000  MEMB      44              0.0000000000
      5891        50  POPC      H6S            57.5612863166        9.7708457531       52.1010644873  MEMB      44              0.0000000000
      5892        50  POPC      C27            55.5861726593        9.2600496369       51.3506774139  MEMB      44              0.0000000000
      5893        50  POPC      H7R            55.1609539969       10.2587105662       51.5935418185  MEMB      44              0.0000000000
      5894        50  POPC      H7S            54.8026566124        8.5059731960       51.5823237538  MEMB      44              0.0000000000
      5895        50  POPC      C28            55.9736614977        9.1706920138       49.8643710336  MEMB      44              0.0000000000
      5896        50  POPC      H8R            56.5460881296        8.2251574890       49.7420694659  MEMB      44              0.0000000000
      5897        50  POPC      H8S            56.6862993515        9.9803369647       49.6072265680  MEMB      44              0.0000000000
      5898        50  POPC      C29            54.7783211495        9.2211712949       48.9504324336  MEMB      44              0.0000000000
      5899        50  POPC      H91            53.9820229964        9.9151034922       49.2559693811  MEMB      44              0.0000000000
      5900        50  POPC      C210           54.6288446259        8.5109846414       47.8219084298  MEMB      44              0.0000000000
      5901        50  POPC      H101           53.7190046734        8.6461939536       47.2184686573  MEMB      44              0.0000000000
      5902        50  POPC      C211           55.6241399549        7.5335400349       47.2525612809  MEMB      44              0.0000000000
      5903        50  POPC      H11R           55.1137109562        6.5557222996       47.1016499273  MEMB      44              0.0000000000
      5904        50  POPC      H11S           56.4907257552        7.3410794504       47.9207950556  MEMB      44              0.0000000000
      5905        50  POPC      C212           56.1477066155        7.9872631995       45.8845261183  MEMB      44              0.0000000000
      5906        50  POPC      H12R           55.2702002116        7.9654081395       45.2044901975  MEMB      44              0.0000000000
      5907        50  POPC      H12S           56.8912943502        7.2541370272       45.5095636654  MEMB      44              0.0000000000
      5908        50  POPC      C213           56.8065610134        9.3710729291       45.8287236820  MEMB      44              0.0000000000
      5909        50  POPC      H13R           57.7434832730        9.3615329610       46.4296147832  MEMB      44              0.0000000000
      5910        50  POPC      H13S           56.1261721579       10.1258220124       46.2771310314  MEMB      44              0.0000000000
      5911        50  POPC      C214           57.1182223529        9.8033012790       44.3883844057  MEMB      44              0.0000000000
      5912        50  POPC      H14R           58.0175622053        9.2554097879       44.0280719041  MEMB      44              0.0000000000
      5913        50  POPC      H14S           57.3581343812       10.8896942957       44.3851868116  MEMB      44              0.0000000000
      5914        50  POPC      C215           55.9674474772        9.5427797552       43.4001340474  MEMB      44              0.0000000000
      5915        50  POPC      H15R           55.0169370070        9.9196230407       43.8384342793  MEMB      44              0.0000000000
      5916        50  POPC      H15S           55.8649695950        8.4471320124       43.2578601157  MEMB      44              0.0000000000
      5917        50  POPC      C216           56.2068695198       10.2361292282       42.0575223567  MEMB      44              0.0000000000
      5918        50  POPC      H16R           57.2993802894       10.3420445260       41.9389167410  MEMB      44              0.0000000000
      5919        50  POPC      H16S           55.7727470875       11.2585127880       42.1216988081  MEMB      44              0.0000000000
      5920        50  POPC      C217           55.7141438294        9.5560629782       40.7683484672  MEMB      44              0.0000000000
      5921        50  POPC      H17R           56.5984531471        9.2687971220       40.1672891917  MEMB      44              0.0000000000
      5922        50  POPC      H17S           55.2241625343       10.3319987509       40.1502415040  MEMB      44              0.0000000000
      5923        50  POPC      C218           54.7611097780        8.3710786275       40.9366038574  MEMB      44              0.0000000000
      5924        50  POPC      H18R           55.2947063606        7.4417081447       41.1962703077  MEMB      44              0.0000000000
      5925        50  POPC      H18S           54.1749014762        8.1873605233       40.0120821828  MEMB      44              0.0000000000
      5926        50  POPC      H18T           54.0829448067        8.5592770775       41.7848151608  MEMB      44              0.0000000000
      5927        50  POPC      C33            55.9758903439       13.9365047806       55.1856664364  MEMB      44              0.0000000000
      5928        50  POPC      H3X            55.5855752630       13.1190459239       54.5381166744  MEMB      44              0.0000000000
      5929        50  POPC      H3Y            56.7391119217       13.4969256992       55.8724978077  MEMB      44              0.0000000000
      5930        50  POPC      C34            56.6308176316       14.9983138183       54.2921714561  MEMB      44              0.0000000000
      5931        50  POPC      H4X            56.8304796514       15.8983158019       54.9187942532  MEMB      44              0.0000000000
      5932        50  POPC      H4Y            55.9183724896       15.2989828035       53.4936356829  MEMB      44              0.0000000000
      5933        50  POPC      C35            57.9580119377       14.5376369381       53.6744825031  MEMB      44              0.0000000000
      5934        50  POPC      H5X            58.6455261527       14.2557612721       54.5062280809  MEMB      44              0.0000000000
      5935        50  POPC      H5Y            58.4161789787       15.3756247967       53.1063723651  MEMB      44              0.0000000000
      5936        50  POPC      C36            57.8384180672       13.3529493442       52.7240617511  MEMB      44              0.0000000000
      5937        50  POPC      H6X            57.2342891431       12.5718617491       53.2145146709  MEMB      44              0.0000000000
      5938        50  POPC      H6Y            58.8522377902       12.9367727599       52.5252028495  MEMB      44              0.0000000000
      5939        50  POPC      C37            57.1768706083       13.7100986645       51.3936222124  MEMB      44              0.0000000000
      5940        50  POPC      H7X            57.7265330802       14.5439270490       50.9048612957  MEMB      44              0.0000000000
      5941        50  POPC      H7Y            56.1347544327       14.0477382702       51.5848825776  MEMB      44              0.0000000000
      5942        50  POPC      C38            57.1516704236       12.4997633688       50.4635751786  MEMB      44              0.0000000000
      5943        50  POPC      H8X            56.5909261259       11.6886501619       50.9694453919  MEMB      44              0.0000000000
      5944        50  POPC      H8Y            58.1951546544       12.1417862915       50.3110768578  MEMB      44              0.0000000000
      5945        50  POPC      C39            56.5133995120       12.7961106648       49.1054658126  MEMB      44              0.0000000000
      5946        50  POPC      H9X            56.7856814403       11.9738040468       48.4058561022  MEMB      44              0.0000000000
      5947        50  POPC      H9Y            56.9479423802       13.7374875878       48.7046099596  MEMB      44              0.0000000000
      5948        50  POPC      C310           54.9815952611       12.9180804102       49.1554475803  MEMB      44              0.0000000000
      5949        50  POPC      H10X           54.6893539205       13.5984391022       49.9852069278  MEMB      44              0.0000000000
      5950        50  POPC      H10Y           54.5436440061       11.9250759524       49.3802615393  MEMB      44              0.0000000000
      5951        50  POPC      C311           54.3947654707       13.4648477309       47.8458995918  MEMB      44              0.0000000000
      5952        50  POPC      H11X           54.8418643763       14.4711907325       47.6887001720  MEMB      44              0.0000000000
      5953        50  POPC      H11Y           53.2957673012       13.6004188824       47.9497169086  MEMB      44              0.0000000000
      5954        50  POPC      C312           54.6850735577       12.5800579179       46.6252215381  MEMB      44              0.0000000000
      5955        50  POPC      H12X           54.1345937659       11.6184862223       46.7361482662  MEMB      44              0.0000000000
      5956        50  POPC      H12Y           55.7695916589       12.3389051157       46.5816396322  MEMB      44              0.0000000000
      5957        50  POPC      C313           54.3169570479       13.2275407708       45.2827725866  MEMB      44              0.0000000000
      5958        50  POPC      H13X           53.2269684337       13.4426261988       45.2616070387  MEMB      44              0.0000000000
      5959        50  POPC      H13Y           54.5425843052       12.4789777185       44.4876573757  MEMB      44              0.0000000000
      5960        50  POPC      C314           55.1137152563       14.5071165137       44.9674398428  MEMB      44              0.0000000000
      5961        50  POPC      H14X           56.1959958490       14.2780951070       45.1022892738  MEMB      44              0.0000000000
      5962        50  POPC      H14Y           54.8494225751       15.3118062082       45.6859391913  MEMB      44              0.0000000000
      5963        50  POPC      C315           54.9014139966       15.0215937970       43.5332270769  MEMB      44              0.0000000000
      5964        50  POPC      H15X           55.1383675676       14.1884281389       42.8321901188  MEMB      44              0.0000000000
      5965        50  POPC      H15Y           55.6348018887       15.8369921860       43.3355299914  MEMB      44              0.0000000000
      5966        50  POPC      C316           53.4951249343       15.5558658546       43.2303356530  MEMB      44              0.0000000000
      5967        50  POPC      H16X           53.3366215804       16.5399247076       43.7160512336  MEMB      44              0.0000000000
      5968        50  POPC      H16Y           52.7109627338       14.8600518275       43.5972340533  MEMB      44              0.0000000000
      5969        50  POPC      H16Z           53.3604645410       15.6879383783       42.1361418986  MEMB      44              0.0000000000
      5970        51  POPC      N               7.1372183314       22.5053465151       62.0893585457  MEMB      45              0.0000000000
      5971        51  POPC      C12             5.9493468271       22.3993938873       61.1450458479  MEMB      45              0.0000000000
      5972        51  POPC      H12A            6.3752582466       22.2643560585       60.1566650899  MEMB      45              0.0000000000
      5973        51  POPC      H12B            5.4021173369       23.3328647918       61.1515010646  MEMB      45              0.0000000000
      5974        51  POPC      C13             7.9284216400       21.2486333431       62.0131730484  MEMB      45              0.0000000000
      5975        51  POPC      H13A            8.3122424066       21.0896991496       61.0098280870  MEMB      45              0.0000000000
      5976        51  POPC      H13B            8.6988188200       21.1975221774       62.7685552662  MEMB      45              0.0000000000
      5977        51  POPC      H13C            7.2423124748       20.4069402367       62.1727051051  MEMB      45              0.0000000000
      5978        51  POPC      C14             7.9908796414       23.6778081220       61.7011552433  MEMB      45              0.0000000000
      5979        51  POPC      H14A            8.7711371592       23.8424822783       62.4326717544  MEMB      45              0.0000000000
      5980        51  POPC      H14B            8.4735916485       23.5112125093       60.7374524193  MEMB      45              0.0000000000
      5981        51  POPC      H14C            7.4058799045       24.5883493621       61.6258273726  MEMB      45              0.0000000000
      5982        51  POPC      C15             6.6930135748       22.5925876474       63.5116040360  MEMB      45              0.0000000000
      5983        51  POPC      H15A            6.0509574176       23.4470794895       63.6552594288  MEMB      45              0.0000000000
      5984        51  POPC      H15B            7.5355578324       22.6617210088       64.1917513282  MEMB      45              0.0000000000
      5985        51  POPC      H15C            6.1140995442       21.7082479575       63.7655597902  MEMB      45              0.0000000000
      5986        51  POPC      C11             4.9798536558       21.2014474285       61.3108645839  MEMB      45              0.0000000000
      5987        51  POPC      H11A            4.0801048700       21.3583847658       60.6751743680  MEMB      45              0.0000000000
      5988        51  POPC      H11B            4.6404445288       21.1235117580       62.3706517539  MEMB      45              0.0000000000
      5989        51  POPC      P               5.2875563497       18.5864167996       61.4004580731  MEMB      45              0.0000000000
      5990        51  POPC      O13             3.8154327448       18.4850533348       61.5236092041  MEMB      45              0.0000000000
      5991        51  POPC      O14             6.0871663616       18.4319305934       62.6342441754  MEMB      45              0.0000000000
      5992        51  POPC      O12             5.6294996651       20.0270573072       60.8523998792  MEMB      45              0.0000000000
      5993        51  POPC      O11             5.7871209119       17.6287982006       60.2726240636  MEMB      45              0.0000000000
      5994        51  POPC      C1              7.0001003099       17.9353135663       59.6024685290  MEMB      45              0.0000000000
      5995        51  POPC      HA              7.5628287726       16.9786576938       59.5520654746  MEMB      45              0.0000000000
      5996        51  POPC      HB              7.6496427383       18.6719993914       60.1306991636  MEMB      45              0.0000000000
      5997        51  POPC      C2              6.7630995014       18.3918595015       58.1443126303  MEMB      45              0.0000000000
      5998        51  POPC      HS              7.7562483197       18.4998124688       57.6536343894  MEMB      45              0.0000000000
      5999        51  POPC      O21             6.0314251772       19.6125372734       57.9929266767  MEMB      45              0.0000000000
      6000        51  POPC      C21             6.6124667450       20.7337572534       58.3217685866  MEMB      45              0.0000000000
      6001        51  POPC      O22             7.6421391384       20.8903491615       58.9602084725  MEMB      45              0.0000000000
      6002        51  POPC      C22             5.8311707309       21.8660214138       57.6551661814  MEMB      45              0.0000000000
      6003        51  POPC      H2R             6.0443080334       22.8121803667       58.1839084470  MEMB      45              0.0000000000
      6004        51  POPC      H2S             4.7512350641       21.6250725977       57.7512056905  MEMB      45              0.0000000000
      6005        51  POPC      C3              5.9899384677       17.2902492920       57.3933978703  MEMB      45              0.0000000000
      6006        51  POPC      HX              4.9465198675       17.2316141650       57.7870374825  MEMB      45              0.0000000000
      6007        51  POPC      HY              6.4902520815       16.3237813532       57.6230334340  MEMB      45              0.0000000000
      6008        51  POPC      O31             6.0682268866       17.5248262899       55.9814074349  MEMB      45              0.0000000000
      6009        51  POPC      C31             5.0568816837       18.1541650250       55.4230570233  MEMB      45              0.0000000000
      6010        51  POPC      O32             3.9672532258       18.3819497380       55.9157222405  MEMB      45              0.0000000000
      6011        51  POPC      C32             5.4880129722       18.5581580057       54.0019934555  MEMB      45              0.0000000000
      6012        51  POPC      H2X             6.3303703927       17.8931499193       53.7162630506  MEMB      45              0.0000000000
      6013        51  POPC      H2Y             5.8602103212       19.5993306521       54.0238669503  MEMB      45              0.0000000000
      6014        51  POPC      C23             6.2025968208       21.9840124189       56.1584069921  MEMB      45              0.0000000000
      6015        51  POPC      H3R             6.2254788211       20.9633907886       55.7127572817  MEMB      45              0.0000000000
      6016        51  POPC      H3S             7.2210093191       22.4218282159       56.0491869722  MEMB      45              0.0000000000
      6017        51  POPC      C24             5.1898025166       22.8160366594       55.3599795326  MEMB      45              0.0000000000
      6018        51  POPC      H4R             5.2990464058       23.8885752962       55.6377324721  MEMB      45              0.0000000000
      6019        51  POPC      H4S             4.1573309378       22.5016371092       55.6298880910  MEMB      45              0.0000000000
      6020        51  POPC      C25             5.3218671054       22.6999965654       53.8325028777  MEMB      45              0.0000000000
      6021        51  POPC      H5R             4.7005682163       23.4960643102       53.3616290656  MEMB      45              0.0000000000
      6022        51  POPC      H5S             4.9161501012       21.7215787760       53.4914476310  MEMB      45              0.0000000000
      6023        51  POPC      C26             6.7652080321       22.8257075592       53.3360485629  MEMB      45              0.0000000000
      6024        51  POPC      H6R             7.3055565303       21.8980949741       53.6229580749  MEMB      45              0.0000000000
      6025        51  POPC      H6S             7.2706478145       23.6665024966       53.8560741601  MEMB      45              0.0000000000
      6026        51  POPC      C27             6.8199690509       23.0492430633       51.8127387129  MEMB      45              0.0000000000
      6027        51  POPC      H7R             6.2989660593       24.0073968389       51.5917416483  MEMB      45              0.0000000000
      6028        51  POPC      H7S             6.2465307269       22.2390919234       51.3056260068  MEMB      45              0.0000000000
      6029        51  POPC      C28             8.2379964034       23.1030361380       51.2184513456  MEMB      45              0.0000000000
      6030        51  POPC      H8R             8.8256392515       23.9013429038       51.7236979116  MEMB      45              0.0000000000
      6031        51  POPC      H8S             8.1616746581       23.3843514534       50.1441623961  MEMB      45              0.0000000000
      6032        51  POPC      C29             8.8863614914       21.7582060257       51.4164713133  MEMB      45              0.0000000000
      6033        51  POPC      H91             8.9887331357       21.4679345500       52.4697718634  MEMB      45              0.0000000000
      6034        51  POPC      C210            9.3546257352       20.9047819158       50.4939721799  MEMB      45              0.0000000000
      6035        51  POPC      H101            9.8101744684       19.9674990912       50.8434856273  MEMB      45              0.0000000000
      6036        51  POPC      C211            9.3626247308       21.0689739415       49.0010759719  MEMB      45              0.0000000000
      6037        51  POPC      H11R           10.3958656584       20.8830548309       48.6392865593  MEMB      45              0.0000000000
      6038        51  POPC      H11S            9.1514989763       22.1151426090       48.7127929083  MEMB      45              0.0000000000
      6039        51  POPC      C212            8.4369485536       20.0923633146       48.2453302386  MEMB      45              0.0000000000
      6040        51  POPC      H12R            8.4258839015       19.0932995573       48.7362321833  MEMB      45              0.0000000000
      6041        51  POPC      H12S            8.8664939260       19.9305695643       47.2296447594  MEMB      45              0.0000000000
      6042        51  POPC      C213            6.9920106731       20.5805039360       48.0584025071  MEMB      45              0.0000000000
      6043        51  POPC      H13R            6.4419149471       20.5347933330       49.0245047731  MEMB      45              0.0000000000
      6044        51  POPC      H13S            6.4809011670       19.8837211126       47.3561563861  MEMB      45              0.0000000000
      6045        51  POPC      C214            6.8462886533       21.9942036496       47.4642442785  MEMB      45              0.0000000000
      6046        51  POPC      H14R            6.9803735624       22.7562212669       48.2611679678  MEMB      45              0.0000000000
      6047        51  POPC      H14S            5.7909117604       22.0642570699       47.1450953133  MEMB      45              0.0000000000
      6048        51  POPC      C215            7.8250867016       22.2949128698       46.3094886866  MEMB      45              0.0000000000
      6049        51  POPC      H15R            8.0539670379       21.3623380819       45.7542469104  MEMB      45              0.0000000000
      6050        51  POPC      H15S            8.7789170305       22.6483947256       46.7630451830  MEMB      45              0.0000000000
      6051        51  POPC      C216            7.4082410587       23.3712154652       45.2958462757  MEMB      45              0.0000000000
      6052        51  POPC      H16R            8.3195003643       23.6311275080       44.7041629393  MEMB      45              0.0000000000
      6053        51  POPC      H16S            7.1154820439       24.2963724449       45.8242240943  MEMB      45              0.0000000000
      6054        51  POPC      C217            6.3358937562       22.9328547344       44.2832143412  MEMB      45              0.0000000000
      6055        51  POPC      H17R            6.6783263530       21.9950107876       43.8039409217  MEMB      45              0.0000000000
      6056        51  POPC      H17S            6.2776085702       23.7029469001       43.4806777582  MEMB      45              0.0000000000
      6057        51  POPC      C218            4.9288793015       22.6769075790       44.8243182008  MEMB      45              0.0000000000
      6058        51  POPC      H18R            4.7858368932       23.1581868873       45.8076497869  MEMB      45              0.0000000000
      6059        51  POPC      H18S            4.7447228554       21.5852655720       44.9311924459  MEMB      45              0.0000000000
      6060        51  POPC      H18T            4.1719401920       23.1153754838       44.1478353982  MEMB      45              0.0000000000
      6061        51  POPC      C33             4.3594940948       18.3949674964       52.9625762652  MEMB      45              0.0000000000
      6062        51  POPC      H3X             3.5942046032       19.1926234741       53.0847025186  MEMB      45              0.0000000000
      6063        51  POPC      H3Y             3.8558194091       17.4209048276       53.1549400981  MEMB      45              0.0000000000
      6064        51  POPC      C34             4.8989133788       18.3642898137       51.5252789372  MEMB      45              0.0000000000
      6065        51  POPC      H4X             5.8086154844       17.7208211453       51.5052389312  MEMB      45              0.0000000000
      6066        51  POPC      H4Y             5.2102337067       19.3836005374       51.2087534927  MEMB      45              0.0000000000
      6067        51  POPC      C35             3.9031814382       17.7730723612       50.5189419322  MEMB      45              0.0000000000
      6068        51  POPC      H5X             3.0207326398       18.4417939845       50.4081510294  MEMB      45              0.0000000000
      6069        51  POPC      H5Y             3.5312219775       16.8019246997       50.9177547983  MEMB      45              0.0000000000
      6070        51  POPC      C36             4.5397646451       17.5214513845       49.1446871945  MEMB      45              0.0000000000
      6071        51  POPC      H6X             5.5439101974       17.0584992922       49.2706075522  MEMB      45              0.0000000000
      6072        51  POPC      H6Y             4.6835843702       18.4990688097       48.6322023247  MEMB      45              0.0000000000
      6073        51  POPC      C37             3.6833642347       16.5987675723       48.2698029313  MEMB      45              0.0000000000
      6074        51  POPC      H7X             2.6281711170       16.9444280341       48.3458087766  MEMB      45              0.0000000000
      6075        51  POPC      H7Y             3.7100053276       15.5599343047       48.6657028877  MEMB      45              0.0000000000
      6076        51  POPC      C38             4.0885397225       16.6153074560       46.7876210884  MEMB      45              0.0000000000
      6077        51  POPC      H8X             4.0756586692       17.6688200419       46.4330318997  MEMB      45              0.0000000000
      6078        51  POPC      H8Y             3.3130277133       16.0633996167       46.2127981602  MEMB      45              0.0000000000
      6079        51  POPC      C39             5.4504850120       15.9743317593       46.4777476224  MEMB      45              0.0000000000
      6080        51  POPC      H9X             5.3556089324       15.2862430052       45.6076684398  MEMB      45              0.0000000000
      6081        51  POPC      H9Y             5.7567336991       15.3591534090       47.3529341334  MEMB      45              0.0000000000
      6082        51  POPC      C310            6.5599998541       16.9923935860       46.1730721098  MEMB      45              0.0000000000
      6083        51  POPC      H10X            7.5294288356       16.5135132846       46.4421092969  MEMB      45              0.0000000000
      6084        51  POPC      H10Y            6.4501497497       17.8728325302       46.8366658863  MEMB      45              0.0000000000
      6085        51  POPC      C311            6.6570854695       17.4257779113       44.6957589027  MEMB      45              0.0000000000
      6086        51  POPC      H11X            6.7634756810       16.5211999682       44.0576466471  MEMB      45              0.0000000000
      6087        51  POPC      H11Y            7.5938261837       18.0202826944       44.5881640686  MEMB      45              0.0000000000
      6088        51  POPC      C312            5.4940885889       18.2887873362       44.1646152520  MEMB      45              0.0000000000
      6089        51  POPC      H12X            5.4335617438       19.2051924804       44.7960070382  MEMB      45              0.0000000000
      6090        51  POPC      H12Y            4.5272225921       17.7526638130       44.2614147451  MEMB      45              0.0000000000
      6091        51  POPC      C313            5.6956788459       18.7201054375       42.6985247001  MEMB      45              0.0000000000
      6092        51  POPC      H13X            6.7702829568       18.5715329664       42.4464342046  MEMB      45              0.0000000000
      6093        51  POPC      H13Y            5.4861370162       19.8063213797       42.5926914730  MEMB      45              0.0000000000
      6094        51  POPC      C314            4.8652478569       17.9510017990       41.6570683201  MEMB      45              0.0000000000
      6095        51  POPC      H14X            4.5556353672       16.9626055019       42.0576216033  MEMB      45              0.0000000000
      6096        51  POPC      H14Y            5.5435086345       17.7645839822       40.7959341402  MEMB      45              0.0000000000
      6097        51  POPC      C315            3.6589230640       18.7123337477       41.0821913657  MEMB      45              0.0000000000
      6098        51  POPC      H15X            3.8699659532       19.8051041920       41.1274110403  MEMB      45              0.0000000000
      6099        51  POPC      H15Y            2.7691466082       18.5157384522       41.7183805187  MEMB      45              0.0000000000
      6100        51  POPC      C316            3.3501034880       18.3573286142       39.6197271182  MEMB      45              0.0000000000
      6101        51  POPC      H16X            3.2466583521       17.2607281778       39.4826354221  MEMB      45              0.0000000000
      6102        51  POPC      H16Y            4.1709167129       18.7186471705       38.9607345342  MEMB      45              0.0000000000
      6103        51  POPC      H16Z            2.4079826724       18.8291283396       39.2784829527  MEMB      45              0.0000000000
      6104        52  POPS      N               6.0180854372       43.8469214941       61.3101906539  MEMB      46              0.0000000000
      6105        52  POPS      HN1             6.9774396759       44.1673581708       61.0765152948  MEMB      46              0.0000000000
      6106        52  POPS      HN2             6.0182368239       42.8520595280       61.5946071807  MEMB      46              0.0000000000
      6107        52  POPS      HN3             5.3403867028       44.0062649637       60.5264559862  MEMB      46              0.0000000000
      6108        52  POPS      C12             5.4624088278       44.5928719512       62.4836360496  MEMB      46              0.0000000000
      6109        52  POPS      H12A            5.8019066047       45.6145495796       62.4094312879  MEMB      46              0.0000000000
      6110        52  POPS      C13             5.8860993767       44.0293464997       63.8509347830  MEMB      46              0.0000000000
      6111        52  POPS      O13A            6.4862279701       42.9200103337       63.9044087188  MEMB      46              0.0000000000
      6112        52  POPS      O13B            5.5996245495       44.7139008427       64.8736221912  MEMB      46              0.0000000000
      6113        52  POPS      C11             3.9093954586       44.5427835932       62.4300830480  MEMB      46              0.0000000000
      6114        52  POPS      H11A            3.5144784990       45.4159219220       63.0025658038  MEMB      46              0.0000000000
      6115        52  POPS      H11B            3.5234020266       43.6342350026       62.9435489931  MEMB      46              0.0000000000
      6116        52  POPS      P               2.7147493208       45.7183470621       60.4080824026  MEMB      46              0.0000000000
      6117        52  POPS      O13             3.6856735269       46.8236332221       60.3983648328  MEMB      46              0.0000000000
      6118        52  POPS      O14             1.4254906082       45.9611054546       61.0838093552  MEMB      46              0.0000000000
      6119        52  POPS      O12             3.4537602096       44.4971236409       61.0825212403  MEMB      46              0.0000000000
      6120        52  POPS      O11             2.5681936560       45.1653052360       58.9285723841  MEMB      46              0.0000000000
      6121        52  POPS      C1              1.5323896784       44.2198691208       58.6368477606  MEMB      46              0.0000000000
      6122        52  POPS      HA              0.5673816061       44.7624640954       58.5127355909  MEMB      46              0.0000000000
      6123        52  POPS      HB              1.3936431342       43.4977575568       59.4740938013  MEMB      46              0.0000000000
      6124        52  POPS      C2              1.7581921553       43.3529714326       57.3394491905  MEMB      46              0.0000000000
      6125        52  POPS      HS              1.0237584083       42.5262916786       57.3945302322  MEMB      46              0.0000000000
      6126        52  POPS      O21             3.0618660243       42.7864820672       57.1586954126  MEMB      46              0.0000000000
      6127        52  POPS      C21             3.5662727394       42.0804567099       58.1135466662  MEMB      46              0.0000000000
      6128        52  POPS      O22             3.0589873678       41.8071289473       59.1854225325  MEMB      46              0.0000000000
      6129        52  POPS      C22             4.9735387543       41.5867221322       57.7299218224  MEMB      46              0.0000000000
      6130        52  POPS      H2R             5.1144412892       40.6469737662       58.3090554989  MEMB      46              0.0000000000
      6131        52  POPS      H2S             5.7208511892       42.3267059806       58.0737909846  MEMB      46              0.0000000000
      6132        52  POPS      C3              1.4672354924       44.0878171118       56.0059685666  MEMB      46              0.0000000000
      6133        52  POPS      HX              0.4210463241       44.4667011390       55.9953135710  MEMB      46              0.0000000000
      6134        52  POPS      HY              1.5585137612       43.3206872848       55.2032339948  MEMB      46              0.0000000000
      6135        52  POPS      O31             2.4428528427       45.0996467925       55.7242178188  MEMB      46              0.0000000000
      6136        52  POPS      C31             2.1615210069       46.2824240576       56.2343515968  MEMB      46              0.0000000000
      6137        52  POPS      O32             1.0702320846       46.6449252370       56.6374031626  MEMB      46              0.0000000000
      6138        52  POPS      C32             3.3684001788       47.1902208871       56.0895461398  MEMB      46              0.0000000000
      6139        52  POPS      H2X             3.3014635799       47.9668746624       56.8794859208  MEMB      46              0.0000000000
      6140        52  POPS      H2Y             3.2560436361       47.6744452455       55.1010617098  MEMB      46              0.0000000000
      6141        52  POPS      C23             5.2004156297       41.2322622685       56.2364727185  MEMB      46              0.0000000000
      6142        52  POPS      H3R             4.3267533256       40.6869072487       55.8216645938  MEMB      46              0.0000000000
      6143        52  POPS      H3S             6.0745247337       40.5402893687       56.1767036305  MEMB      46              0.0000000000
      6144        52  POPS      C24             5.5418059296       42.4446466217       55.3596969391  MEMB      46              0.0000000000
      6145        52  POPS      H4R             6.2265412923       43.1159110304       55.9259321625  MEMB      46              0.0000000000
      6146        52  POPS      H4S             4.6111047382       43.0233571377       55.1631561874  MEMB      46              0.0000000000
      6147        52  POPS      C25             6.2419902070       42.0959930822       54.0294465135  MEMB      46              0.0000000000
      6148        52  POPS      H5R             7.2646086433       41.7079004235       54.2402029238  MEMB      46              0.0000000000
      6149        52  POPS      H5S             6.3621352164       43.0454331943       53.4564093204  MEMB      46              0.0000000000
      6150        52  POPS      C26             5.5150755911       41.0838971531       53.1224091974  MEMB      46              0.0000000000
      6151        52  POPS      H6R             5.6682464177       40.0520994291       53.5101681331  MEMB      46              0.0000000000
      6152        52  POPS      H6S             5.9996767450       41.1301881676       52.1204291432  MEMB      46              0.0000000000
      6153        52  POPS      C27             4.0074838883       41.3612102073       52.9848243994  MEMB      46              0.0000000000
      6154        52  POPS      H7R             3.8325670474       42.4568764867       53.0790059508  MEMB      46              0.0000000000
      6155        52  POPS      H7S             3.4849986999       40.8765675401       53.8389162792  MEMB      46              0.0000000000
      6156        52  POPS      C28             3.3601498315       40.8728088854       51.6713962815  MEMB      46              0.0000000000
      6157        52  POPS      H8R             2.2596731529       41.0038944926       51.7863902459  MEMB      46              0.0000000000
      6158        52  POPS      H8S             3.5359764559       39.7821039902       51.5497988076  MEMB      46              0.0000000000
      6159        52  POPS      C29             3.8386645094       41.6361258403       50.4616002639  MEMB      46              0.0000000000
      6160        52  POPS      H91             4.6225423192       41.1405662589       49.8663077981  MEMB      46              0.0000000000
      6161        52  POPS      C210            3.4259714523       42.8654499246       50.0993743785  MEMB      46              0.0000000000
      6162        52  POPS      H101            3.8382585102       43.3228349887       49.1908625268  MEMB      46              0.0000000000
      6163        52  POPS      C211            2.4179614738       43.7309031893       50.8048412689  MEMB      46              0.0000000000
      6164        52  POPS      H11R            2.9415988388       44.5238715818       51.3876655447  MEMB      46              0.0000000000
      6165        52  POPS      H11S            1.8190626213       43.1384839455       51.5256949747  MEMB      46              0.0000000000
      6166        52  POPS      C212            1.4541617710       44.4121392705       49.8136034259  MEMB      46              0.0000000000
      6167        52  POPS      H12R            0.6724240236       44.9235435096       50.4231517498  MEMB      46              0.0000000000
      6168        52  POPS      H12S            0.9370628924       43.6662475169       49.1753059421  MEMB      46              0.0000000000
      6169        52  POPS      C213            2.1336099932       45.4861179178       48.9505181761  MEMB      46              0.0000000000
      6170        52  POPS      H13R            3.1202686293       45.7044992144       49.3922768008  MEMB      46              0.0000000000
      6171        52  POPS      H13S            1.5475561154       46.4173380319       49.0479991804  MEMB      46              0.0000000000
      6172        52  POPS      C214            2.2766634391       45.1636205448       47.4550539380  MEMB      46              0.0000000000
      6173        52  POPS      H14R            1.2591155637       45.1031555781       47.0081832497  MEMB      46              0.0000000000
      6174        52  POPS      H14S            2.7713943317       44.1777393941       47.3152899677  MEMB      46              0.0000000000
      6175        52  POPS      C215            3.0906938563       46.2353015032       46.7118328055  MEMB      46              0.0000000000
      6176        52  POPS      H15R            4.1671171941       46.1105517746       46.9534355562  MEMB      46              0.0000000000
      6177        52  POPS      H15S            2.8152815465       47.2488747722       47.0702647839  MEMB      46              0.0000000000
      6178        52  POPS      C216            2.9087465556       46.2062918460       45.1902440743  MEMB      46              0.0000000000
      6179        52  POPS      H16R            1.8287458495       46.1880170559       44.9329583514  MEMB      46              0.0000000000
      6180        52  POPS      H16S            3.3800867973       45.2810574842       44.8054968053  MEMB      46              0.0000000000
      6181        52  POPS      C217            3.5643682064       47.4277139238       44.5445270070  MEMB      46              0.0000000000
      6182        52  POPS      H17R            4.5230478161       47.5691736536       45.0877299619  MEMB      46              0.0000000000
      6183        52  POPS      H17S            2.9221094991       48.3210618240       44.7179425084  MEMB      46              0.0000000000
      6184        52  POPS      C218            3.9190078900       47.3160939874       43.0655812965  MEMB      46              0.0000000000
      6185        52  POPS      H18R            4.8015530843       46.6632662027       42.9656022081  MEMB      46              0.0000000000
      6186        52  POPS      H18S            4.1834747881       48.3124213420       42.6469583102  MEMB      46              0.0000000000
      6187        52  POPS      H18T            3.0963760713       46.8770851299       42.4690914425  MEMB      46              0.0000000000
      6188        52  POPS      C33             4.7317190558       46.4722028539       56.1929372754  MEMB      46              0.0000000000
      6189        52  POPS      H3X             4.7626758987       45.5663574813       55.5494077116  MEMB      46              0.0000000000
      6190        52  POPS      H3Y             4.8692937854       46.1259510471       57.2436156115  MEMB      46              0.0000000000
      6191        52  POPS      C34             5.8837860453       47.3969429313       55.7876285262  MEMB      46              0.0000000000
      6192        52  POPS      H4X             6.8350650013       46.8497216867       55.9721891354  MEMB      46              0.0000000000
      6193        52  POPS      H4Y             5.8773428970       48.2907468684       56.4510902733  MEMB      46              0.0000000000
      6194        52  POPS      C35             5.8291001280       47.8553085378       54.3158976440  MEMB      46              0.0000000000
      6195        52  POPS      H5X             6.6600088999       48.5617998833       54.1082462452  MEMB      46              0.0000000000
      6196        52  POPS      H5Y             4.8934405560       48.4204871546       54.1166820205  MEMB      46              0.0000000000
      6197        52  POPS      C36             5.9358266529       46.6942006457       53.3242841977  MEMB      46              0.0000000000
      6198        52  POPS      H6X             5.0850694763       45.9895717179       53.4689948020  MEMB      46              0.0000000000
      6199        52  POPS      H6Y             6.8739930343       46.1275971336       53.5242709791  MEMB      46              0.0000000000
      6200        52  POPS      C37             5.9300313059       47.1494285691       51.8601708052  MEMB      46              0.0000000000
      6201        52  POPS      H7X             6.7308674279       47.9065760984       51.6975101452  MEMB      46              0.0000000000
      6202        52  POPS      H7Y             4.9514056095       47.6227566209       51.6213149874  MEMB      46              0.0000000000
      6203        52  POPS      C38             6.1742233525       45.9544425420       50.9346363543  MEMB      46              0.0000000000
      6204        52  POPS      H8X             5.4730243490       45.1365995806       51.2225240897  MEMB      46              0.0000000000
      6205        52  POPS      H8Y             7.2079759955       45.5853914371       51.1145146024  MEMB      46              0.0000000000
      6206        52  POPS      C39             5.9913857503       46.2663698289       49.4447037242  MEMB      46              0.0000000000
      6207        52  POPS      H9X             6.4722073146       47.2439402958       49.2144389402  MEMB      46              0.0000000000
      6208        52  POPS      H9Y             4.9164577853       46.4041466510       49.2347502400  MEMB      46              0.0000000000
      6209        52  POPS      C310            6.5749679852       45.2118968359       48.4827551241  MEMB      46              0.0000000000
      6210        52  POPS      H10X            7.6329152189       45.4787801923       48.3296330440  MEMB      46              0.0000000000
      6211        52  POPS      H10Y            6.0966744777       45.3024718608       47.4833964608  MEMB      46              0.0000000000
      6212        52  POPS      C311            6.5489342835       43.7398792546       48.9313693538  MEMB      46              0.0000000000
      6213        52  POPS      H11X            5.6629357719       43.2529873708       48.4773558936  MEMB      46              0.0000000000
      6214        52  POPS      H11Y            6.4609067771       43.6311696182       50.0312277901  MEMB      46              0.0000000000
      6215        52  POPS      C312            7.7872216918       42.9378074780       48.5032071364  MEMB      46              0.0000000000
      6216        52  POPS      H12X            7.6168902917       41.8792984904       48.7873787640  MEMB      46              0.0000000000
      6217        52  POPS      H12Y            8.6870473300       43.2677622368       49.0635037786  MEMB      46              0.0000000000
      6218        52  POPS      C313            8.0853949056       43.0032792486       47.0029006704  MEMB      46              0.0000000000
      6219        52  POPS      H13X            8.9348338908       42.3086979343       46.8207207398  MEMB      46              0.0000000000
      6220        52  POPS      H13Y            8.4332832408       44.0216027352       46.7286305492  MEMB      46              0.0000000000
      6221        52  POPS      C314            6.8882256527       42.6191998744       46.1174634223  MEMB      46              0.0000000000
      6222        52  POPS      H14X            7.1788202988       42.6908339336       45.0462393897  MEMB      46              0.0000000000
      6223        52  POPS      H14Y            6.0571764161       43.3414464744       46.2659136441  MEMB      46              0.0000000000
      6224        52  POPS      C315            6.3848137656       41.1992880939       46.3986060017  MEMB      46              0.0000000000
      6225        52  POPS      H15X            6.0190853608       41.1297329519       47.4486315818  MEMB      46              0.0000000000
      6226        52  POPS      H15Y            7.2431349384       40.5008406092       46.2926421550  MEMB      46              0.0000000000
      6227        52  POPS      C316            5.2723211213       40.7466527899       45.4616799565  MEMB      46              0.0000000000
      6228        52  POPS      H16X            4.3843660027       41.4079703599       45.5684246956  MEMB      46              0.0000000000
      6229        52  POPS      H16Y            4.9714285811       39.7040847362       45.7029929554  MEMB      46              0.0000000000
      6230        52  POPS      H16Z            5.6127208302       40.7752844832       44.4043942874  MEMB      46              0.0000000000
      6231        53  POPC      N              36.9020040618       -2.9002653739       61.4566379693  MEMB      47              0.0000000000
      6232        53  POPC      C12            37.2730278915       -1.8971352087       62.5493951225  MEMB      47              0.0000000000
      6233        53  POPC      H12A           36.7642502938       -2.1574840633       63.4648119987  MEMB      47              0.0000000000
      6234        53  POPC      H12B           36.8941323924       -0.9159226550       62.2404073429  MEMB      47              0.0000000000
      6235        53  POPC      C13            36.8252103064       -2.1396209495       60.1646979272  MEMB      47              0.0000000000
      6236        53  POPC      H13A           35.9218159966       -1.5260777428       60.1421378605  MEMB      47              0.0000000000
      6237        53  POPC      H13B           37.6353284292       -1.4071602015       60.1171931695  MEMB      47              0.0000000000
      6238        53  POPC      H13C           36.8736985794       -2.7771438195       59.3024158555  MEMB      47              0.0000000000
      6239        53  POPC      C14            37.8991930389       -4.0213249157       61.3547800234  MEMB      47              0.0000000000
      6240        53  POPC      H14A           37.7265897497       -4.6275247645       60.4696589751  MEMB      47              0.0000000000
      6241        53  POPC      H14B           38.9038456947       -3.6099121609       61.2924539160  MEMB      47              0.0000000000
      6242        53  POPC      H14C           37.8338840010       -4.6920562123       62.2047267786  MEMB      47              0.0000000000
      6243        53  POPC      C15            35.5397213958       -3.4797161134       61.6694780230  MEMB      47              0.0000000000
      6244        53  POPC      H15A           35.3313449567       -4.2243646616       60.9078632594  MEMB      47              0.0000000000
      6245        53  POPC      H15B           34.7463368787       -2.7302529285       61.5512935526  MEMB      47              0.0000000000
      6246        53  POPC      H15C           35.4180952798       -3.9727737950       62.6174948227  MEMB      47              0.0000000000
      6247        53  POPC      C11            38.7844156288       -1.6922732611       62.8936623846  MEMB      47              0.0000000000
      6248        53  POPC      H11A           39.2364200338       -2.6734192751       63.1483712677  MEMB      47              0.0000000000
      6249        53  POPC      H11B           38.8508684381       -1.1007195494       63.8412747580  MEMB      47              0.0000000000
      6250        53  POPC      P              39.1914769847        0.4591210446       61.5488084590  MEMB      47              0.0000000000
      6251        53  POPC      O13            39.1862354071        1.1425872068       62.8699596325  MEMB      47              0.0000000000
      6252        53  POPC      O14            37.9407319664        0.4030126680       60.7805341624  MEMB      47              0.0000000000
      6253        53  POPC      O12            39.5430806914       -1.0757147984       61.8319465970  MEMB      47              0.0000000000
      6254        53  POPC      O11            40.3487255140        0.9860528679       60.6045050587  MEMB      47              0.0000000000
      6255        53  POPC      C1             40.5348710247        2.3864805112       60.3231088527  MEMB      47              0.0000000000
      6256        53  POPC      HA             41.6226492276        2.5331007476       60.1453040192  MEMB      47              0.0000000000
      6257        53  POPC      HB             40.3170387337        3.0212506808       61.2080800230  MEMB      47              0.0000000000
      6258        53  POPC      C2             39.8656601967        3.0134293049       59.0190462229  MEMB      47              0.0000000000
      6259        53  POPC      HS             40.4358522798        3.9540428665       58.8286963004  MEMB      47              0.0000000000
      6260        53  POPC      O21            38.5012621478        3.3792027676       59.0558053957  MEMB      47              0.0000000000
      6261        53  POPC      C21            37.7396235987        3.1858857935       60.0539073943  MEMB      47              0.0000000000
      6262        53  POPC      O22            37.9521422363        3.4757627233       61.2260700302  MEMB      47              0.0000000000
      6263        53  POPC      C22            36.4536299927        2.5575839686       59.4848693096  MEMB      47              0.0000000000
      6264        53  POPC      H2R            35.7152356433        3.2674990176       59.8151757607  MEMB      47              0.0000000000
      6265        53  POPC      H2S            36.2108679545        1.6200607048       60.0061812152  MEMB      47              0.0000000000
      6266        53  POPC      C3             39.9007121310        2.1945931035       57.7053557240  MEMB      47              0.0000000000
      6267        53  POPC      HX             40.9178274828        2.2195712945       57.2991625749  MEMB      47              0.0000000000
      6268        53  POPC      HY             39.2976444127        2.7399816290       56.9423881077  MEMB      47              0.0000000000
      6269        53  POPC      O31            39.3497522770        0.8627699795       57.8650735913  MEMB      47              0.0000000000
      6270        53  POPC      C31            39.7686394798        0.0320551550       56.9322465196  MEMB      47              0.0000000000
      6271        53  POPC      O32            40.4921589068        0.3513064923       56.0074781780  MEMB      47              0.0000000000
      6272        53  POPC      C32            39.2111517376       -1.3692964687       57.1728777041  MEMB      47              0.0000000000
      6273        53  POPC      H2X            38.1602825496       -1.2941039814       57.5091629552  MEMB      47              0.0000000000
      6274        53  POPC      H2Y            39.8122628189       -1.8482978196       57.9761455597  MEMB      47              0.0000000000
      6275        53  POPC      C23            36.2380827445        2.4450670168       57.9449468224  MEMB      47              0.0000000000
      6276        53  POPC      H3R            37.0351573051        2.9336992860       57.3517939816  MEMB      47              0.0000000000
      6277        53  POPC      H3S            35.2971012182        3.0143024980       57.7451040224  MEMB      47              0.0000000000
      6278        53  POPC      C24            36.0158090546        1.0109173506       57.4364158749  MEMB      47              0.0000000000
      6279        53  POPC      H4R            35.6058864046        0.4015474008       58.2736761296  MEMB      47              0.0000000000
      6280        53  POPC      H4S            36.9855447062        0.5672992235       57.1439461133  MEMB      47              0.0000000000
      6281        53  POPC      C25            35.0197966036        0.9321283696       56.2637777210  MEMB      47              0.0000000000
      6282        53  POPC      H5R            34.0439920498        1.3226334684       56.6407712882  MEMB      47              0.0000000000
      6283        53  POPC      H5S            34.8451580089       -0.1294599601       55.9856465585  MEMB      47              0.0000000000
      6284        53  POPC      C26            35.4209228275        1.7461978426       55.0215915646  MEMB      47              0.0000000000
      6285        53  POPC      H6R            35.9136795959        2.6910432242       55.3332057290  MEMB      47              0.0000000000
      6286        53  POPC      H6S            34.4943192972        2.0278592735       54.4732438277  MEMB      47              0.0000000000
      6287        53  POPC      C27            36.3502606764        0.9957245026       54.0545685819  MEMB      47              0.0000000000
      6288        53  POPC      H7R            35.9449833130       -0.0206342278       53.8522365956  MEMB      47              0.0000000000
      6289        53  POPC      H7S            37.3344605869        0.8868657258       54.5606897392  MEMB      47              0.0000000000
      6290        53  POPC      C28            36.5350096344        1.7511968917       52.7281235368  MEMB      47              0.0000000000
      6291        53  POPC      H8R            36.7452746866        2.8024829365       52.9994822554  MEMB      47              0.0000000000
      6292        53  POPC      H8S            35.5659897367        1.7479006824       52.1840633681  MEMB      47              0.0000000000
      6293        53  POPC      C29            37.6758549931        1.2294860764       51.8901186355  MEMB      47              0.0000000000
      6294        53  POPC      H91            38.5918604818        0.9911486670       52.4545748809  MEMB      47              0.0000000000
      6295        53  POPC      C210           37.6963396623        1.0887302549       50.5526039799  MEMB      47              0.0000000000
      6296        53  POPC      H101           38.6249376239        0.7452105713       50.0716232778  MEMB      47              0.0000000000
      6297        53  POPC      C211           36.5928263263        1.4185567090       49.5808268028  MEMB      47              0.0000000000
      6298        53  POPC      H11R           35.5991119448        1.4497989895       50.0555815453  MEMB      47              0.0000000000
      6299        53  POPC      H11S           36.5454861693        0.6532575983       48.7723019685  MEMB      47              0.0000000000
      6300        53  POPC      C212           36.7628675445        2.8167233217       48.9774333928  MEMB      47              0.0000000000
      6301        53  POPC      H12R           36.6225504695        3.5875973045       49.7626861954  MEMB      47              0.0000000000
      6302        53  POPC      H12S           35.9558164309        2.9629416866       48.2290767400  MEMB      47              0.0000000000
      6303        53  POPC      C213           38.1482652796        3.0376946995       48.3716858177  MEMB      47              0.0000000000
      6304        53  POPC      H13R           38.4961474558        2.1100865118       47.8658011209  MEMB      47              0.0000000000
      6305        53  POPC      H13S           38.8343178272        3.2454520832       49.2197195828  MEMB      47              0.0000000000
      6306        53  POPC      C214           38.2170296059        4.1973811994       47.3787019641  MEMB      47              0.0000000000
      6307        53  POPC      H14R           39.1958738416        4.7156422580       47.5014743394  MEMB      47              0.0000000000
      6308        53  POPC      H14S           37.4245401622        4.9412797781       47.6149718482  MEMB      47              0.0000000000
      6309        53  POPC      C215           38.0929824598        3.6967908675       45.9304341578  MEMB      47              0.0000000000
      6310        53  POPC      H15R           38.9869011851        3.1030159478       45.6800259258  MEMB      47              0.0000000000
      6311        53  POPC      H15S           38.1059158984        4.5739526245       45.2569937560  MEMB      47              0.0000000000
      6312        53  POPC      C216           36.8282593267        2.8501938998       45.6952171301  MEMB      47              0.0000000000
      6313        53  POPC      H16R           35.9922195019        3.3661612472       46.2177568018  MEMB      47              0.0000000000
      6314        53  POPC      H16S           36.9458846958        1.8546565812       46.1712866271  MEMB      47              0.0000000000
      6315        53  POPC      C217           36.3544700401        2.6879912400       44.2432169374  MEMB      47              0.0000000000
      6316        53  POPC      H17R           37.0120493300        2.0078716095       43.6701289054  MEMB      47              0.0000000000
      6317        53  POPC      H17S           36.4227965708        3.6529005121       43.7033408341  MEMB      47              0.0000000000
      6318        53  POPC      C218           34.9031737979        2.1934347199       44.2243383173  MEMB      47              0.0000000000
      6319        53  POPC      H18R           34.7877960528        1.3068970259       44.8815873553  MEMB      47              0.0000000000
      6320        53  POPC      H18S           34.5752203810        1.9221413620       43.2003371851  MEMB      47              0.0000000000
      6321        53  POPC      H18T           34.2270684097        2.9827305241       44.6192155833  MEMB      47              0.0000000000
      6322        53  POPC      C33            39.3096376941       -2.2072214202       55.8779712560  MEMB      47              0.0000000000
      6323        53  POPC      H3X            38.8475605484       -3.2060199988       56.0364816873  MEMB      47              0.0000000000
      6324        53  POPC      H3Y            40.3931204649       -2.3639190723       55.6694830012  MEMB      47              0.0000000000
      6325        53  POPC      C34            38.6242342529       -1.5150286583       54.6825728397  MEMB      47              0.0000000000
      6326        53  POPC      H4X            39.1809430947       -0.5946622650       54.3971976040  MEMB      47              0.0000000000
      6327        53  POPC      H4Y            37.5984035761       -1.2179148925       54.9915315688  MEMB      47              0.0000000000
      6328        53  POPC      C35            38.5275072682       -2.3269448960       53.3878988598  MEMB      47              0.0000000000
      6329        53  POPC      H5X            38.2856471253       -1.6253105798       52.5565647069  MEMB      47              0.0000000000
      6330        53  POPC      H5Y            37.6479657920       -2.9861936916       53.4828614023  MEMB      47              0.0000000000
      6331        53  POPC      C36            39.8032058971       -3.1125193991       53.0462922384  MEMB      47              0.0000000000
      6332        53  POPC      H6X            39.6347175421       -4.2042868548       53.1755139509  MEMB      47              0.0000000000
      6333        53  POPC      H6Y            40.6266245733       -2.8228585513       53.7339901460  MEMB      47              0.0000000000
      6334        53  POPC      C37            40.3379366396       -2.8136324699       51.6452738518  MEMB      47              0.0000000000
      6335        53  POPC      H7X            41.4132341788       -3.1049556498       51.6024802057  MEMB      47              0.0000000000
      6336        53  POPC      H7Y            40.2808238570       -1.7204817824       51.4448089677  MEMB      47              0.0000000000
      6337        53  POPC      C38            39.5986235385       -3.5984577532       50.5772725156  MEMB      47              0.0000000000
      6338        53  POPC      H8X            38.4976535365       -3.4593290427       50.6785324529  MEMB      47              0.0000000000
      6339        53  POPC      H8Y            39.8145478736       -4.6844163876       50.7136605869  MEMB      47              0.0000000000
      6340        53  POPC      C39            40.0262076007       -3.1626757208       49.1831627079  MEMB      47              0.0000000000
      6341        53  POPC      H9X            41.1339200562       -3.0582314745       49.1237318576  MEMB      47              0.0000000000
      6342        53  POPC      H9Y            39.5788667557       -2.1637382385       48.9738346664  MEMB      47              0.0000000000
      6343        53  POPC      C310           39.5629669114       -4.1861471700       48.1560699086  MEMB      47              0.0000000000
      6344        53  POPC      H10X           38.6336054798       -4.6758094604       48.5319492673  MEMB      47              0.0000000000
      6345        53  POPC      H10Y           40.3346192146       -4.9623348465       48.0380553412  MEMB      47              0.0000000000
      6346        53  POPC      C311           39.2410284685       -3.5792851399       46.8016755105  MEMB      47              0.0000000000
      6347        53  POPC      H11X           38.3913121339       -2.9111574806       47.0534163850  MEMB      47              0.0000000000
      6348        53  POPC      H11Y           38.8585788962       -4.3522903306       46.1028077277  MEMB      47              0.0000000000
      6349        53  POPC      C312           40.4223079370       -2.8449789920       46.1434779658  MEMB      47              0.0000000000
      6350        53  POPC      H12X           41.1657422230       -3.5883605130       45.7847679309  MEMB      47              0.0000000000
      6351        53  POPC      H12Y           40.9419552687       -2.2316434192       46.9076883175  MEMB      47              0.0000000000
      6352        53  POPC      C313           39.9935460350       -1.9081838477       45.0056728638  MEMB      47              0.0000000000
      6353        53  POPC      H13X           39.9397722860       -2.4400512634       44.0365076332  MEMB      47              0.0000000000
      6354        53  POPC      H13Y           40.7455440860       -1.1057268255       44.8641047051  MEMB      47              0.0000000000
      6355        53  POPC      C314           38.6157197667       -1.3174769062       45.2887373159  MEMB      47              0.0000000000
      6356        53  POPC      H14X           38.5730396413       -0.8919031878       46.3167660786  MEMB      47              0.0000000000
      6357        53  POPC      H14Y           37.8850888355       -2.1597379748       45.2312364886  MEMB      47              0.0000000000
      6358        53  POPC      C315           38.1601171796       -0.2826685787       44.2869388565  MEMB      47              0.0000000000
      6359        53  POPC      H15X           38.9419551450       -0.1422283248       43.5181259742  MEMB      47              0.0000000000
      6360        53  POPC      H15Y           38.0987140232        0.6900849533       44.8131570047  MEMB      47              0.0000000000
      6361        53  POPC      C316           36.8114028504       -0.6796475617       43.6817256430  MEMB      47              0.0000000000
      6362        53  POPC      H16X           36.7434711112       -1.7811000439       43.5504016422  MEMB      47              0.0000000000
      6363        53  POPC      H16Y           36.6608834375       -0.2060425936       42.6884615682  MEMB      47              0.0000000000
      6364        53  POPC      H16Z           35.9922106877       -0.3711353075       44.3650116547  MEMB      47              0.0000000000
      6365        54  POPC      N              46.4999481808       -0.0549855294       63.2598277452  MEMB      48              0.0000000000
      6366        54  POPC      C12            47.2024388514        0.3941344334       61.9907189576  MEMB      48              0.0000000000
      6367        54  POPC      H12A           46.7071946662       -0.0955288423       61.1516248310  MEMB      48              0.0000000000
      6368        54  POPC      H12B           48.2115082488       -0.0009167024       61.9939227833  MEMB      48              0.0000000000
      6369        54  POPC      C13            46.4997832539        1.0469720376       64.2657960134  MEMB      48              0.0000000000
      6370        54  POPC      H13A           45.9852207861        1.8894327528       63.7906326994  MEMB      48              0.0000000000
      6371        54  POPC      H13B           45.9613376924        0.7687714567       65.1523573702  MEMB      48              0.0000000000
      6372        54  POPC      H13C           47.4954898180        1.4056627704       64.4858433168  MEMB      48              0.0000000000
      6373        54  POPC      C14            45.0663066251       -0.3003766594       62.9468534930  MEMB      48              0.0000000000
      6374        54  POPC      H14A           44.9691495849       -1.0994406475       62.2246408008  MEMB      48              0.0000000000
      6375        54  POPC      H14B           44.4986968693       -0.5396991085       63.8349045826  MEMB      48              0.0000000000
      6376        54  POPC      H14C           44.6539377530        0.6081382743       62.4992459985  MEMB      48              0.0000000000
      6377        54  POPC      C15            47.1364461741       -1.2664444417       63.8412089023  MEMB      48              0.0000000000
      6378        54  POPC      H15A           46.8017485272       -1.4450822416       64.8565410536  MEMB      48              0.0000000000
      6379        54  POPC      H15B           48.2213458600       -1.1387213882       63.8976674299  MEMB      48              0.0000000000
      6380        54  POPC      H15C           46.9783720744       -2.1290601489       63.2112153377  MEMB      48              0.0000000000
      6381        54  POPC      C11            47.2392419480        1.9102907624       61.6761459682  MEMB      48              0.0000000000
      6382        54  POPC      H11A           47.5757809186        2.0740393483       60.6270842793  MEMB      48              0.0000000000
      6383        54  POPC      H11B           48.0162270073        2.3744615999       62.3153699847  MEMB      48              0.0000000000
      6384        54  POPC      P              44.9957279539        3.0247600448       60.8254884395  MEMB      48              0.0000000000
      6385        54  POPC      O13            45.4646584493        4.3482255776       60.3756267650  MEMB      48              0.0000000000
      6386        54  POPC      O14            43.6314776857        2.9310692152       61.3891907526  MEMB      48              0.0000000000
      6387        54  POPC      O12            45.9898271463        2.5296011391       61.9461026581  MEMB      48              0.0000000000
      6388        54  POPC      O11            45.2287293219        1.9600881464       59.6533236019  MEMB      48              0.0000000000
      6389        54  POPC      C1             44.6632660148        0.6385817197       59.7190244612  MEMB      48              0.0000000000
      6390        54  POPC      HA             43.7882402388        0.6014546366       60.4169374316  MEMB      48              0.0000000000
      6391        54  POPC      HB             45.4019364243       -0.0911145204       60.0808679209  MEMB      48              0.0000000000
      6392        54  POPC      C2             44.0682816321        0.0474763127       58.3909465102  MEMB      48              0.0000000000
      6393        54  POPC      HS             43.7578214218       -0.9882401623       58.6737809396  MEMB      48              0.0000000000
      6394        54  POPC      O21            44.9178224191        0.0260392115       57.2039958039  MEMB      48              0.0000000000
      6395        54  POPC      C21            44.4019972530       -0.8444213099       56.2845284630  MEMB      48              0.0000000000
      6396        54  POPC      O22            43.5814647922       -1.7008213081       56.5512916546  MEMB      48              0.0000000000
      6397        54  POPC      C22            44.9923682930       -0.6562763968       54.8932601867  MEMB      48              0.0000000000
      6398        54  POPC      H2R            45.0460619483       -1.6743664844       54.4500640596  MEMB      48              0.0000000000
      6399        54  POPC      H2S            46.0026985160       -0.2553326220       55.0252178022  MEMB      48              0.0000000000
      6400        54  POPC      C3             42.7979546918        0.8547500698       58.0741796276  MEMB      48              0.0000000000
      6401        54  POPC      HX             42.0358363185        0.5772098446       58.8333458086  MEMB      48              0.0000000000
      6402        54  POPC      HY             42.4181470925        0.5227198580       57.0932539197  MEMB      48              0.0000000000
      6403        54  POPC      O31            42.9875363410        2.2861299951       58.1282035495  MEMB      48              0.0000000000
      6404        54  POPC      C31            43.4064115509        2.8225115427       56.9942627696  MEMB      48              0.0000000000
      6405        54  POPC      O32            43.5205362178        2.2302432029       55.9330971108  MEMB      48              0.0000000000
      6406        54  POPC      C32            43.6979888189        4.3088450813       57.1726291990  MEMB      48              0.0000000000
      6407        54  POPC      H2X            44.2760893943        4.4563319616       58.1066029149  MEMB      48              0.0000000000
      6408        54  POPC      H2Y            42.7263443718        4.8375816124       57.2737210993  MEMB      48              0.0000000000
      6409        54  POPC      C23            44.1896416411        0.2599563442       53.9283722286  MEMB      48              0.0000000000
      6410        54  POPC      H3R            44.6678431304        1.2674754510       53.9205578841  MEMB      48              0.0000000000
      6411        54  POPC      H3S            43.1435566169        0.3904218398       54.2927314855  MEMB      48              0.0000000000
      6412        54  POPC      C24            44.1227795645       -0.3398247881       52.5154203744  MEMB      48              0.0000000000
      6413        54  POPC      H4R            43.2777326278       -1.0650841439       52.5019712567  MEMB      48              0.0000000000
      6414        54  POPC      H4S            45.0617316771       -0.9143857101       52.3450849989  MEMB      48              0.0000000000
      6415        54  POPC      C25            43.9773763341        0.6442798693       51.3405450600  MEMB      48              0.0000000000
      6416        54  POPC      H5R            43.8367857034        0.0525999498       50.4061540437  MEMB      48              0.0000000000
      6417        54  POPC      H5S            44.9300525440        1.2099964998       51.2353518041  MEMB      48              0.0000000000
      6418        54  POPC      C26            42.8338151545        1.6658134550       51.4405431619  MEMB      48              0.0000000000
      6419        54  POPC      H6R            42.9792751452        2.2893351794       52.3525531421  MEMB      48              0.0000000000
      6420        54  POPC      H6S            41.8614854901        1.1419727777       51.5533202685  MEMB      48              0.0000000000
      6421        54  POPC      C27            42.8109310211        2.5765528940       50.1920001940  MEMB      48              0.0000000000
      6422        54  POPC      H7R            43.6314547304        2.2562331680       49.5160453626  MEMB      48              0.0000000000
      6423        54  POPC      H7S            43.0351963044        3.6214180157       50.5057588314  MEMB      48              0.0000000000
      6424        54  POPC      C28            41.5082799434        2.5636162365       49.3692013440  MEMB      48              0.0000000000
      6425        54  POPC      H8R            41.6109926749        3.2931217150       48.5361778565  MEMB      48              0.0000000000
      6426        54  POPC      H8S            40.7099763442        2.9573225337       50.0306496025  MEMB      48              0.0000000000
      6427        54  POPC      C29            41.1434462919        1.1787860166       48.8864699483  MEMB      48              0.0000000000
      6428        54  POPC      H91            41.0862857653        0.4493846725       49.7105190252  MEMB      48              0.0000000000
      6429        54  POPC      C210           40.9457087608        0.6947202812       47.6474959761  MEMB      48              0.0000000000
      6430        54  POPC      H101           40.6122490539       -0.3518427287       47.5840536145  MEMB      48              0.0000000000
      6431        54  POPC      C211           41.0224428790        1.3198267774       46.2731288569  MEMB      48              0.0000000000
      6432        54  POPC      H11R           40.0019078675        1.3444522063       45.8339549521  MEMB      48              0.0000000000
      6433        54  POPC      H11S           41.6038487658        0.6170208947       45.6376401421  MEMB      48              0.0000000000
      6434        54  POPC      C212           41.7047045204        2.6774835611       46.0150042125  MEMB      48              0.0000000000
      6435        54  POPC      H12R           42.6679093524        2.6763495998       46.5686014470  MEMB      48              0.0000000000
      6436        54  POPC      H12S           41.0907174908        3.5161152902       46.4060154416  MEMB      48              0.0000000000
      6437        54  POPC      C213           42.0086361945        2.8882015024       44.5164225861  MEMB      48              0.0000000000
      6438        54  POPC      H13R           42.7090943319        2.0850372290       44.1900719611  MEMB      48              0.0000000000
      6439        54  POPC      H13S           42.5376206037        3.8588219693       44.3837785788  MEMB      48              0.0000000000
      6440        54  POPC      C214           40.7657981727        2.8589072013       43.6083037625  MEMB      48              0.0000000000
      6441        54  POPC      H14R           40.0745637775        3.6728440625       43.9124385357  MEMB      48              0.0000000000
      6442        54  POPC      H14S           40.2219460148        1.8952956369       43.7186497606  MEMB      48              0.0000000000
      6443        54  POPC      C215           41.0841984327        3.0621565156       42.1273337454  MEMB      48              0.0000000000
      6444        54  POPC      H15R           41.7650178146        3.9291316036       41.9909977090  MEMB      48              0.0000000000
      6445        54  POPC      H15S           40.1391219704        3.2856348510       41.5772239175  MEMB      48              0.0000000000
      6446        54  POPC      C216           41.7193398300        1.8429540601       41.4711105709  MEMB      48              0.0000000000
      6447        54  POPC      H16R           40.9415838543        1.0538225834       41.3939928603  MEMB      48              0.0000000000
      6448        54  POPC      H16S           42.5632774327        1.4432859679       42.0776491481  MEMB      48              0.0000000000
      6449        54  POPC      C217           42.2404572465        2.2350619123       40.0954259547  MEMB      48              0.0000000000
      6450        54  POPC      H17R           43.2181890146        2.7399971563       40.2525693544  MEMB      48              0.0000000000
      6451        54  POPC      H17S           41.5446581527        2.9733859717       39.6306505393  MEMB      48              0.0000000000
      6452        54  POPC      C218           42.4195750765        1.0682733784       39.1442831259  MEMB      48              0.0000000000
      6453        54  POPC      H18R           42.8383431176        1.4313605693       38.1933384580  MEMB      48              0.0000000000
      6454        54  POPC      H18S           41.4440899141        0.6281475954       38.8769606754  MEMB      48              0.0000000000
      6455        54  POPC      H18T           43.0786384823        0.2868010544       39.5797393069  MEMB      48              0.0000000000
      6456        54  POPC      C33            44.4817621558        4.8736733701       55.9625131886  MEMB      48              0.0000000000
      6457        54  POPC      H3X            44.6488227306        5.9594911748       56.1376183443  MEMB      48              0.0000000000
      6458        54  POPC      H3Y            43.8648969438        4.7809649833       55.0415770054  MEMB      48              0.0000000000
      6459        54  POPC      C34            45.8433831962        4.1725257116       55.7841397600  MEMB      48              0.0000000000
      6460        54  POPC      H4X            45.6894555358        3.0944518077       55.5520990871  MEMB      48              0.0000000000
      6461        54  POPC      H4Y            46.3897697389        4.2284060912       56.7532552753  MEMB      48              0.0000000000
      6462        54  POPC      C35            46.7408303611        4.7249188697       54.6653672262  MEMB      48              0.0000000000
      6463        54  POPC      H5X            47.7293279472        4.2157665525       54.7452227466  MEMB      48              0.0000000000
      6464        54  POPC      H5Y            46.9029069049        5.8131129417       54.8114241884  MEMB      48              0.0000000000
      6465        54  POPC      C36            46.1950443824        4.4598533832       53.2587209994  MEMB      48              0.0000000000
      6466        54  POPC      H6X            45.1714329181        4.8881454216       53.1639910426  MEMB      48              0.0000000000
      6467        54  POPC      H6Y            46.1100776307        3.3638118687       53.0896603499  MEMB      48              0.0000000000
      6468        54  POPC      C37            47.0945692362        5.0997970143       52.1953142524  MEMB      48              0.0000000000
      6469        54  POPC      H7X            48.1351128058        4.7203716889       52.2880963647  MEMB      48              0.0000000000
      6470        54  POPC      H7Y            47.1121576347        6.1930862737       52.4015861928  MEMB      48              0.0000000000
      6471        54  POPC      C38            46.5899232497        4.8656090663       50.7734678036  MEMB      48              0.0000000000
      6472        54  POPC      H8X            47.0681771770        5.5930505518       50.0789479960  MEMB      48              0.0000000000
      6473        54  POPC      H8Y            45.4921504269        5.0547845504       50.7487377536  MEMB      48              0.0000000000
      6474        54  POPC      C39            46.8821885051        3.4548622585       50.2543705603  MEMB      48              0.0000000000
      6475        54  POPC      H9X            46.5059562684        2.6971619356       50.9744379329  MEMB      48              0.0000000000
      6476        54  POPC      H9Y            47.9799388526        3.3061393529       50.1617602210  MEMB      48              0.0000000000
      6477        54  POPC      C310           46.2100454073        3.2635483283       48.8974027608  MEMB      48              0.0000000000
      6478        54  POPC      H10X           46.6771852861        3.9759254590       48.1817087922  MEMB      48              0.0000000000
      6479        54  POPC      H10Y           45.1431537615        3.5614994400       48.9948861674  MEMB      48              0.0000000000
      6480        54  POPC      C311           46.2788250416        1.8364828750       48.3415056265  MEMB      48              0.0000000000
      6481        54  POPC      H11X           45.9677476318        1.1127437622       49.1276778437  MEMB      48              0.0000000000
      6482        54  POPC      H11Y           47.3318559421        1.6048590648       48.0706544087  MEMB      48              0.0000000000
      6483        54  POPC      C312           45.3699706140        1.6341878706       47.1171256764  MEMB      48              0.0000000000
      6484        54  POPC      H12X           44.3289240675        1.4678303981       47.4815291598  MEMB      48              0.0000000000
      6485        54  POPC      H12Y           45.6730885666        0.7148141315       46.5718475621  MEMB      48              0.0000000000
      6486        54  POPC      C313           45.3280059260        2.8343758129       46.1534540129  MEMB      48              0.0000000000
      6487        54  POPC      H13X           44.9440135906        3.7265113325       46.6956575364  MEMB      48              0.0000000000
      6488        54  POPC      H13Y           44.5683147026        2.6151847657       45.3783759233  MEMB      48              0.0000000000
      6489        54  POPC      C314           46.6727161506        3.1955603672       45.5022557935  MEMB      48              0.0000000000
      6490        54  POPC      H14X           47.4935999199        3.1460595202       46.2486680515  MEMB      48              0.0000000000
      6491        54  POPC      H14Y           46.6240636635        4.2513665507       45.1571162717  MEMB      48              0.0000000000
      6492        54  POPC      C315           47.0196204200        2.3420078218       44.2802919706  MEMB      48              0.0000000000
      6493        54  POPC      H15X           47.2695836700        1.3129209160       44.6273286759  MEMB      48              0.0000000000
      6494        54  POPC      H15Y           47.9369007322        2.7624760808       43.8052228943  MEMB      48              0.0000000000
      6495        54  POPC      C316           45.8958327389        2.2648973711       43.2380493533  MEMB      48              0.0000000000
      6496        54  POPC      H16X           45.4085475646        1.2651087260       43.2717073744  MEMB      48              0.0000000000
      6497        54  POPC      H16Y           46.2881404771        2.4387432353       42.2170552910  MEMB      48              0.0000000000
      6498        54  POPC      H16Z           45.1206398132        3.0368999721       43.4122814566  MEMB      48              0.0000000000
      6499        55  POPC      N              62.2115009883       39.8967201504       62.2985817757  MEMB      49              0.0000000000
      6500        55  POPC      C12            61.1532078140       40.8449172165       62.8020676334  MEMB      49              0.0000000000
      6501        55  POPC      H12A           61.2486654049       40.9395000312       63.8770628300  MEMB      49              0.0000000000
      6502        55  POPC      H12B           60.1776887800       40.4212435801       62.6051927329  MEMB      49              0.0000000000
      6503        55  POPC      C13            63.5387914065       40.2068642004       62.9129333447  MEMB      49              0.0000000000
      6504        55  POPC      H13A           63.8627311761       41.1983538989       62.5986018298  MEMB      49              0.0000000000
      6505        55  POPC      H13B           63.4886567259       40.2124516895       63.9923997145  MEMB      49              0.0000000000
      6506        55  POPC      H13C           64.2891099270       39.4876497506       62.5939184898  MEMB      49              0.0000000000
      6507        55  POPC      C14            61.8697392210       38.4812584651       62.5810178299  MEMB      49              0.0000000000
      6508        55  POPC      H14A           60.9243545384       38.1810159429       62.1420752769  MEMB      49              0.0000000000
      6509        55  POPC      H14B           62.6208558711       37.8428521439       62.1280834626  MEMB      49              0.0000000000
      6510        55  POPC      H14C           61.8081525038       38.2570742375       63.6348114643  MEMB      49              0.0000000000
      6511        55  POPC      C15            62.3976079969       40.0154865823       60.8137044126  MEMB      49              0.0000000000
      6512        55  POPC      H15A           63.2384644823       39.4013384779       60.4917507924  MEMB      49              0.0000000000
      6513        55  POPC      H15B           62.6531348039       41.0469829471       60.5591855969  MEMB      49              0.0000000000
      6514        55  POPC      H15C           61.5178704108       39.7344882990       60.2591845038  MEMB      49              0.0000000000
      6515        55  POPC      C11            61.1745221379       42.2612873899       62.2024573244  MEMB      49              0.0000000000
      6516        55  POPC      H11A           60.4705100555       42.9033100899       62.7772507516  MEMB      49              0.0000000000
      6517        55  POPC      H11B           60.7767874952       42.1862017363       61.1577069830  MEMB      49              0.0000000000
      6518        55  POPC      P              62.7860049302       43.9945178905       61.2334060287  MEMB      49              0.0000000000
      6519        55  POPC      O13            64.0735981323       44.6018185683       61.5931459123  MEMB      49              0.0000000000
      6520        55  POPC      O14            61.6003557207       44.8732366055       61.1947968340  MEMB      49              0.0000000000
      6521        55  POPC      O12            62.4907243322       42.8277397000       62.2607539909  MEMB      49              0.0000000000
      6522        55  POPC      O11            62.8840711651       43.1534231406       59.9021914525  MEMB      49              0.0000000000
      6523        55  POPC      C1             64.0076262338       43.3394385376       59.0422572544  MEMB      49              0.0000000000
      6524        55  POPC      HA             64.9566531564       43.5552950587       59.5924995773  MEMB      49              0.0000000000
      6525        55  POPC      HB             63.8100897122       44.2091443073       58.3734123966  MEMB      49              0.0000000000
      6526        55  POPC      C2             64.2357597920       42.0881225030       58.1533434822  MEMB      49              0.0000000000
      6527        55  POPC      HS             64.6924445969       42.4568649268       57.2032506852  MEMB      49              0.0000000000
      6528        55  POPC      O21            63.0056007144       41.3810391642       57.9084580709  MEMB      49              0.0000000000
      6529        55  POPC      C21            62.1763426464       42.0047288806       57.0973892889  MEMB      49              0.0000000000
      6530        55  POPC      O22            62.4686300053       42.9290117545       56.3579311112  MEMB      49              0.0000000000
      6531        55  POPC      C22            60.7959097529       41.3671337471       57.2024702659  MEMB      49              0.0000000000
      6532        55  POPC      H2R            60.1922543320       42.0186662159       57.8681963711  MEMB      49              0.0000000000
      6533        55  POPC      H2S            60.8797082035       40.3653903916       57.6670066224  MEMB      49              0.0000000000
      6534        55  POPC      C3             65.2408585936       41.0865713822       58.7726648598  MEMB      49              0.0000000000
      6535        55  POPC      HX             64.7256693640       40.3098653458       59.3768714045  MEMB      49              0.0000000000
      6536        55  POPC      HY             65.9182868246       41.6381980762       59.4594528174  MEMB      49              0.0000000000
      6537        55  POPC      O31            66.0479506646       40.5324507878       57.7286527558  MEMB      49              0.0000000000
      6538        55  POPC      C31            65.6833377711       39.3953395056       57.1724605902  MEMB      49              0.0000000000
      6539        55  POPC      O32            64.7354538986       38.6931721406       57.4595362892  MEMB      49              0.0000000000
      6540        55  POPC      C32            66.5752252739       39.1891273292       55.9506621563  MEMB      49              0.0000000000
      6541        55  POPC      H2X            67.1073688438       38.2333934742       56.1187056588  MEMB      49              0.0000000000
      6542        55  POPC      H2Y            67.3394619936       39.9893073457       55.8960284516  MEMB      49              0.0000000000
      6543        55  POPC      C23            60.1477806622       41.2840886131       55.8102243230  MEMB      49              0.0000000000
      6544        55  POPC      H3R            60.0843043964       42.3107976628       55.3751819297  MEMB      49              0.0000000000
      6545        55  POPC      H3S            59.1076434225       40.8966053620       55.9013480776  MEMB      49              0.0000000000
      6546        55  POPC      C24            60.9353021927       40.3917890258       54.8402530229  MEMB      49              0.0000000000
      6547        55  POPC      H4R            60.9253473432       39.3326170439       55.1667591137  MEMB      49              0.0000000000
      6548        55  POPC      H4S            62.0039241751       40.7011572262       54.8089768988  MEMB      49              0.0000000000
      6549        55  POPC      C25            60.3768776523       40.5049360741       53.4225714123  MEMB      49              0.0000000000
      6550        55  POPC      H5R            60.2127361392       41.5876355397       53.2108459463  MEMB      49              0.0000000000
      6551        55  POPC      H5S            59.3871248521       40.0095648519       53.3628358271  MEMB      49              0.0000000000
      6552        55  POPC      C26            61.3328048927       39.9696051694       52.3510377994  MEMB      49              0.0000000000
      6553        55  POPC      H6R            62.2472495130       40.6075946834       52.3502706427  MEMB      49              0.0000000000
      6554        55  POPC      H6S            60.8322963748       40.0843185825       51.3644636633  MEMB      49              0.0000000000
      6555        55  POPC      C27            61.7816833772       38.5162210784       52.5062518918  MEMB      49              0.0000000000
      6556        55  POPC      H7R            60.8905224688       37.8618067958       52.5822218328  MEMB      49              0.0000000000
      6557        55  POPC      H7S            62.3589225896       38.3882159851       53.4492357369  MEMB      49              0.0000000000
      6558        55  POPC      C28            62.6040456110       38.0558488642       51.2879017560  MEMB      49              0.0000000000
      6559        55  POPC      H8R            62.1334728163       38.4566030264       50.3640852290  MEMB      49              0.0000000000
      6560        55  POPC      H8S            62.5116837668       36.9501272551       51.2419645360  MEMB      49              0.0000000000
      6561        55  POPC      C29            64.0644514770       38.4118414790       51.3932523199  MEMB      49              0.0000000000
      6562        55  POPC      H91            64.5388526004       37.9990545909       52.2952494345  MEMB      49              0.0000000000
      6563        55  POPC      C210           64.8219673501       39.1639869582       50.5727929288  MEMB      49              0.0000000000
      6564        55  POPC      H101           65.8794057927       39.3191226803       50.8414109239  MEMB      49              0.0000000000
      6565        55  POPC      C211           64.4105213029       39.8699509856       49.3109662803  MEMB      49              0.0000000000
      6566        55  POPC      H11R           64.7014059910       40.9417777108       49.4072924895  MEMB      49              0.0000000000
      6567        55  POPC      H11S           63.3098926261       39.8649882983       49.1847669120  MEMB      49              0.0000000000
      6568        55  POPC      C212           65.0634199304       39.3280069008       48.0238726413  MEMB      49              0.0000000000
      6569        55  POPC      H12R           66.0383635392       38.8314520654       48.2248010083  MEMB      49              0.0000000000
      6570        55  POPC      H12S           65.2952726282       40.2131524786       47.3897379230  MEMB      49              0.0000000000
      6571        55  POPC      C213           64.1440834572       38.3879210077       47.2267224321  MEMB      49              0.0000000000
      6572        55  POPC      H13R           63.0803616274       38.6800104634       47.3735475519  MEMB      49              0.0000000000
      6573        55  POPC      H13S           64.2642905181       37.3540996000       47.6215504552  MEMB      49              0.0000000000
      6574        55  POPC      C214           64.4279345754       38.4080035050       45.7159954354  MEMB      49              0.0000000000
      6575        55  POPC      H14R           63.8818928550       37.5637294471       45.2448991343  MEMB      49              0.0000000000
      6576        55  POPC      H14S           65.5130156141       38.2315677736       45.5568881799  MEMB      49              0.0000000000
      6577        55  POPC      C215           64.0016752862       39.7073067835       44.9996861458  MEMB      49              0.0000000000
      6578        55  POPC      H15R           64.3313565450       40.5922945243       45.5824386684  MEMB      49              0.0000000000
      6579        55  POPC      H15S           62.8919832233       39.7490219889       44.9380619392  MEMB      49              0.0000000000
      6580        55  POPC      C216           64.6104724977       39.8047656115       43.5928062644  MEMB      49              0.0000000000
      6581        55  POPC      H16R           64.2398487699       38.9679148097       42.9713959760  MEMB      49              0.0000000000
      6582        55  POPC      H16S           65.7052825582       39.6658704184       43.6739729114  MEMB      49              0.0000000000
      6583        55  POPC      C217           64.3366325990       41.1083338301       42.8313436353  MEMB      49              0.0000000000
      6584        55  POPC      H17R           63.2585365939       41.3658115192       42.9190443331  MEMB      49              0.0000000000
      6585        55  POPC      H17S           64.5412573173       40.9147320265       41.7516497879  MEMB      49              0.0000000000
      6586        55  POPC      C218           65.2213805675       42.2806775821       43.2649916365  MEMB      49              0.0000000000
      6587        55  POPC      H18R           64.9535451133       42.6332217128       44.2824212586  MEMB      49              0.0000000000
      6588        55  POPC      H18S           65.1191968686       43.1280483896       42.5525710767  MEMB      49              0.0000000000
      6589        55  POPC      H18T           66.2873485820       41.9707397635       43.2739142339  MEMB      49              0.0000000000
      6590        55  POPC      C33            65.7288596447       39.1650201132       54.6571047802  MEMB      49              0.0000000000
      6591        55  POPC      H3X            64.6633080097       38.9001157908       54.8540860336  MEMB      49              0.0000000000
      6592        55  POPC      H3Y            66.1257553323       38.3535983561       54.0037125047  MEMB      49              0.0000000000
      6593        55  POPC      C34            65.8147734366       40.4606528620       53.8361152093  MEMB      49              0.0000000000
      6594        55  POPC      H4X            65.2279607954       40.3109735663       52.9084942991  MEMB      49              0.0000000000
      6595        55  POPC      H4Y            66.8758581563       40.6161850073       53.5408672132  MEMB      49              0.0000000000
      6596        55  POPC      C35            65.2927995282       41.7548960254       54.4778747554  MEMB      49              0.0000000000
      6597        55  POPC      H5X            65.8416314375       41.9228753702       55.4284748496  MEMB      49              0.0000000000
      6598        55  POPC      H5Y            64.2114947705       41.6711238872       54.7239695565  MEMB      49              0.0000000000
      6599        55  POPC      C36            65.5196988684       42.9639256623       53.5428619167  MEMB      49              0.0000000000
      6600        55  POPC      H6X            66.5759826146       42.8995975426       53.1908226375  MEMB      49              0.0000000000
      6601        55  POPC      H6Y            65.4213010970       43.9183127090       54.1031267538  MEMB      49              0.0000000000
      6602        55  POPC      C37            64.6192820413       43.0315815696       52.2903702326  MEMB      49              0.0000000000
      6603        55  POPC      H7X            64.4971256755       42.0239995283       51.8419064578  MEMB      49              0.0000000000
      6604        55  POPC      H7Y            65.1539826863       43.6576905407       51.5395688153  MEMB      49              0.0000000000
      6605        55  POPC      C38            63.2436453935       43.6886517989       52.5158070068  MEMB      49              0.0000000000
      6606        55  POPC      H8X            63.4076316314       44.6528471190       53.0485479596  MEMB      49              0.0000000000
      6607        55  POPC      H8Y            62.6286978117       43.0435041607       53.1836754414  MEMB      49              0.0000000000
      6608        55  POPC      C39            62.4717392073       43.9822889945       51.2043039115  MEMB      49              0.0000000000
      6609        55  POPC      H9X            63.1534669891       44.4819157566       50.4829760008  MEMB      49              0.0000000000
      6610        55  POPC      H9Y            61.6388133654       44.6843598526       51.4368686734  MEMB      49              0.0000000000
      6611        55  POPC      C310           61.8669885617       42.7159465092       50.5749187251  MEMB      49              0.0000000000
      6612        55  POPC      H10X           61.0978793873       42.3339099859       51.2797607592  MEMB      49              0.0000000000
      6613        55  POPC      H10Y           62.6677883316       41.9483543814       50.4948939612  MEMB      49              0.0000000000
      6614        55  POPC      C311           61.1983392351       42.8699075216       49.1976251226  MEMB      49              0.0000000000
      6615        55  POPC      H11X           61.8987026689       43.3769657006       48.4987831750  MEMB      49              0.0000000000
      6616        55  POPC      H11Y           60.2870073221       43.4998262459       49.2957833680  MEMB      49              0.0000000000
      6617        55  POPC      C312           60.8186726299       41.4974887413       48.6051055097  MEMB      49              0.0000000000
      6618        55  POPC      H12X           60.2418786296       40.9114477886       49.3544663882  MEMB      49              0.0000000000
      6619        55  POPC      H12Y           61.7549336668       40.9406066823       48.3876754657  MEMB      49              0.0000000000
      6620        55  POPC      C313           60.0096825866       41.5677729011       47.3054214030  MEMB      49              0.0000000000
      6621        55  POPC      H13X           60.5539687293       42.2123132256       46.5785363957  MEMB      49              0.0000000000
      6622        55  POPC      H13Y           59.0192091108       42.0315205632       47.5115621619  MEMB      49              0.0000000000
      6623        55  POPC      C314           59.8074521846       40.1926723115       46.6533704156  MEMB      49              0.0000000000
      6624        55  POPC      H14X           59.4148409394       39.4609413054       47.3943136881  MEMB      49              0.0000000000
      6625        55  POPC      H14Y           60.8041968905       39.8207046431       46.3195659951  MEMB      49              0.0000000000
      6626        55  POPC      C315           58.8674410953       40.2512455279       45.4417892210  MEMB      49              0.0000000000
      6627        55  POPC      H15X           58.7259702906       41.3156276795       45.1481558224  MEMB      49              0.0000000000
      6628        55  POPC      H15Y           57.8698195120       39.8548270018       45.7378006093  MEMB      49              0.0000000000
      6629        55  POPC      C316           59.4025648303       39.4842069220       44.2320462947  MEMB      49              0.0000000000
      6630        55  POPC      H16X           60.3528383858       39.9427249914       43.8808393729  MEMB      49              0.0000000000
      6631        55  POPC      H16Y           58.6771715609       39.5033626669       43.3917427087  MEMB      49              0.0000000000
      6632        55  POPC      H16Z           59.6039531368       38.4258497992       44.5062899567  MEMB      49              0.0000000000
      6633        56  POPS      N              -0.4877512010       35.7247167220       62.6043183487  MEMB      50              0.0000000000
      6634        56  POPS      HN1            -0.7323132020       36.3463209567       63.4055161247  MEMB      50              0.0000000000
      6635        56  POPS      HN2            -1.2744170134       35.7599274200       61.9212119352  MEMB      50              0.0000000000
      6636        56  POPS      HN3            -0.3372289222       34.7313585695       62.8789850316  MEMB      50              0.0000000000
      6637        56  POPS      C12             0.7014146528       36.2116274826       61.8480665898  MEMB      50              0.0000000000
      6638        56  POPS      H12A            1.3940165504       36.6868669488       62.5266775246  MEMB      50              0.0000000000
      6639        56  POPS      C13             0.3148267564       37.2402751507       60.7563152828  MEMB      50              0.0000000000
      6640        56  POPS      O13A           -0.9034774360       37.5695002617       60.7076176826  MEMB      50              0.0000000000
      6641        56  POPS      O13B            1.2044096825       37.7191410786       60.0076382781  MEMB      50              0.0000000000
      6642        56  POPS      C11             1.3685645438       34.9589713181       61.2588019290  MEMB      50              0.0000000000
      6643        56  POPS      H11A            2.2306257308       35.2938424481       60.6274503977  MEMB      50              0.0000000000
      6644        56  POPS      H11B            0.6447739870       34.4486685361       60.5807606565  MEMB      50              0.0000000000
      6645        56  POPS      P               3.2778240056       33.8226331665       62.5992567542  MEMB      50              0.0000000000
      6646        56  POPS      O13             3.4279034086       33.0183644222       63.8313337766  MEMB      50              0.0000000000
      6647        56  POPS      O14             3.9723338509       35.1253995486       62.5376951991  MEMB      50              0.0000000000
      6648        56  POPS      O12             1.7412061763       34.0715334047       62.3296786442  MEMB      50              0.0000000000
      6649        56  POPS      O11             3.6693729956       32.9021093445       61.3669134943  MEMB      50              0.0000000000
      6650        56  POPS      C1              2.7245408668       31.9327098248       60.8824491428  MEMB      50              0.0000000000
      6651        56  POPS      HA              1.7159950000       31.9668054039       61.3645894190  MEMB      50              0.0000000000
      6652        56  POPS      HB              3.1366656029       30.9267025719       61.1155769547  MEMB      50              0.0000000000
      6653        56  POPS      C2              2.5205357584       31.9773602850       59.3359244633  MEMB      50              0.0000000000
      6654        56  POPS      HS              3.5258787721       31.9868725782       58.8662013827  MEMB      50              0.0000000000
      6655        56  POPS      O21             1.7036976180       33.0775279019       58.8882558797  MEMB      50              0.0000000000
      6656        56  POPS      C21             2.3009612383       34.0850578723       58.2434537748  MEMB      50              0.0000000000
      6657        56  POPS      O22             3.5041298891       34.2284074906       58.1265492349  MEMB      50              0.0000000000
      6658        56  POPS      C22             1.2282315784       34.9175180196       57.5383517459  MEMB      50              0.0000000000
      6659        56  POPS      H2R             1.1168007157       35.8802260483       58.0805369167  MEMB      50              0.0000000000
      6660        56  POPS      H2S             0.2631942462       34.3732510912       57.6001152494  MEMB      50              0.0000000000
      6661        56  POPS      C3              1.8026979166       30.6634319765       58.9248449564  MEMB      50              0.0000000000
      6662        56  POPS      HX              0.7382386413       30.7181040091       59.2592210123  MEMB      50              0.0000000000
      6663        56  POPS      HY              2.2505952927       29.8170390135       59.4865418377  MEMB      50              0.0000000000
      6664        56  POPS      O31             1.9778883293       30.4079651623       57.5180627331  MEMB      50              0.0000000000
      6665        56  POPS      C31             0.9140972296       30.6407274292       56.7641735721  MEMB      50              0.0000000000
      6666        56  POPS      O32            -0.1948270002       30.9343875964       57.1739405238  MEMB      50              0.0000000000
      6667        56  POPS      C32             1.3113310872       30.5201191031       55.2692582282  MEMB      50              0.0000000000
      6668        56  POPS      H2X             1.1043706492       29.4930568854       54.9309336379  MEMB      50              0.0000000000
      6669        56  POPS      H2Y             2.3973673739       30.6804421883       55.1701689920  MEMB      50              0.0000000000
      6670        56  POPS      C23             1.5610521358       35.1801157243       56.0486087831  MEMB      50              0.0000000000
      6671        56  POPS      H3R             1.8860469945       34.2482970272       55.5390431410  MEMB      50              0.0000000000
      6672        56  POPS      H3S             2.4178717611       35.8925917592       56.0093668398  MEMB      50              0.0000000000
      6673        56  POPS      C24             0.3715508349       35.7864715910       55.2847041819  MEMB      50              0.0000000000
      6674        56  POPS      H4R             0.7697496430       36.3554481034       54.4150049462  MEMB      50              0.0000000000
      6675        56  POPS      H4S            -0.1672815882       36.4932644691       55.9553191073  MEMB      50              0.0000000000
      6676        56  POPS      C25            -0.6470465151       34.7742324958       54.7501453301  MEMB      50              0.0000000000
      6677        56  POPS      H5R            -1.0329909091       34.1446310594       55.5823772490  MEMB      50              0.0000000000
      6678        56  POPS      H5S            -0.1259032131       34.1133511009       54.0296315390  MEMB      50              0.0000000000
      6679        56  POPS      C26            -1.8317683178       35.4388531321       54.0264382943  MEMB      50              0.0000000000
      6680        56  POPS      H6R            -1.4399278527       36.1096678416       53.2353531721  MEMB      50              0.0000000000
      6681        56  POPS      H6S            -2.3869390202       36.0699923086       54.7549061448  MEMB      50              0.0000000000
      6682        56  POPS      C27            -2.7891265381       34.4130991456       53.3917113357  MEMB      50              0.0000000000
      6683        56  POPS      H7R            -3.7584856068       34.9046984091       53.1493196146  MEMB      50              0.0000000000
      6684        56  POPS      H7S            -2.9981803505       33.6268781624       54.1532085100  MEMB      50              0.0000000000
      6685        56  POPS      C28            -2.2222692638       33.7352425942       52.1246058048  MEMB      50              0.0000000000
      6686        56  POPS      H8R            -2.8696237175       32.8629707268       51.8805048964  MEMB      50              0.0000000000
      6687        56  POPS      H8S            -1.2133224119       33.3308594198       52.3468829373  MEMB      50              0.0000000000
      6688        56  POPS      C29            -2.1874827368       34.6699117238       50.9449435851  MEMB      50              0.0000000000
      6689        56  POPS      H91            -3.1492913641       34.7555835339       50.4150406382  MEMB      50              0.0000000000
      6690        56  POPS      C210           -1.1475943263       35.4105104937       50.5153179120  MEMB      50              0.0000000000
      6691        56  POPS      H101           -1.3028373453       36.0682373550       49.6456265677  MEMB      50              0.0000000000
      6692        56  POPS      C211            0.2446008493       35.4923177902       51.1005465907  MEMB      50              0.0000000000
      6693        56  POPS      H11R            0.3996434570       34.7491580181       51.9130829057  MEMB      50              0.0000000000
      6694        56  POPS      H11S            0.4338330427       36.4982680165       51.5391348645  MEMB      50              0.0000000000
      6695        56  POPS      C212            1.2501574262       35.2339615703       49.9651680156  MEMB      50              0.0000000000
      6696        56  POPS      H12R            1.2133162676       36.0698396566       49.2302656976  MEMB      50              0.0000000000
      6697        56  POPS      H12S            0.9330001769       34.3043303299       49.4328435668  MEMB      50              0.0000000000
      6698        56  POPS      C213            2.7068710004       35.0166326818       50.4069050564  MEMB      50              0.0000000000
      6699        56  POPS      H13R            2.7037405769       34.5335086393       51.4125091770  MEMB      50              0.0000000000
      6700        56  POPS      H13S            3.2399772507       35.9876643123       50.4939275417  MEMB      50              0.0000000000
      6701        56  POPS      C214            3.4423216266       34.0666379357       49.4473939421  MEMB      50              0.0000000000
      6702        56  POPS      H14R            2.8789874049       33.1015457645       49.4947609038  MEMB      50              0.0000000000
      6703        56  POPS      H14S            4.4749282980       33.8539759770       49.7994565723  MEMB      50              0.0000000000
      6704        56  POPS      C215            3.4710823902       34.5018479254       47.9687458931  MEMB      50              0.0000000000
      6705        56  POPS      H15R            4.4148588528       35.0437778653       47.7442983824  MEMB      50              0.0000000000
      6706        56  POPS      H15S            2.6286534273       35.1890828906       47.7354914518  MEMB      50              0.0000000000
      6707        56  POPS      C216            3.3233582291       33.2607961296       47.0832852625  MEMB      50              0.0000000000
      6708        56  POPS      H16R            2.3172022360       32.8276464573       47.3007169243  MEMB      50              0.0000000000
      6709        56  POPS      H16S            4.0840627000       32.5130881913       47.3943310526  MEMB      50              0.0000000000
      6710        56  POPS      C217            3.4194244941       33.4693433573       45.5691929947  MEMB      50              0.0000000000
      6711        56  POPS      H17R            2.9838641687       34.4490254597       45.2781096796  MEMB      50              0.0000000000
      6712        56  POPS      H17S            2.7748018858       32.6818459387       45.1098054225  MEMB      50              0.0000000000
      6713        56  POPS      C218            4.8355335305       33.3003089177       45.0054954645  MEMB      50              0.0000000000
      6714        56  POPS      H18R            5.4298774557       34.2298189160       45.1338584244  MEMB      50              0.0000000000
      6715        56  POPS      H18S            4.8082830206       33.0481410950       43.9236424937  MEMB      50              0.0000000000
      6716        56  POPS      H18T            5.3580460660       32.4698147821       45.5251196350  MEMB      50              0.0000000000
      6717        56  POPS      C33             0.6250005648       31.5331066936       54.3227897806  MEMB      50              0.0000000000
      6718        56  POPS      H3X             1.0680053037       32.5240890310       54.5612462212  MEMB      50              0.0000000000
      6719        56  POPS      H3Y            -0.4684736007       31.5830990492       54.5200574304  MEMB      50              0.0000000000
      6720        56  POPS      C34             0.8601481173       31.2654556500       52.8192477358  MEMB      50              0.0000000000
      6721        56  POPS      H4X             1.7826424558       30.6633778235       52.6858335485  MEMB      50              0.0000000000
      6722        56  POPS      H4Y             1.0209618420       32.2384523560       52.2999427613  MEMB      50              0.0000000000
      6723        56  POPS      C35            -0.3272788858       30.5638563925       52.1409651766  MEMB      50              0.0000000000
      6724        56  POPS      H5X            -1.2430007178       31.1781238743       52.2655494744  MEMB      50              0.0000000000
      6725        56  POPS      H5Y            -0.5206122574       29.6146914424       52.6692668829  MEMB      50              0.0000000000
      6726        56  POPS      C36            -0.1297727703       30.2343305195       50.6520626419  MEMB      50              0.0000000000
      6727        56  POPS      H6X            -0.2656872358       29.1393473070       50.5140515682  MEMB      50              0.0000000000
      6728        56  POPS      H6Y             0.9073982091       30.4717307441       50.3309920584  MEMB      50              0.0000000000
      6729        56  POPS      C37            -1.1309814091       30.9480450374       49.7312751095  MEMB      50              0.0000000000
      6730        56  POPS      H7X            -0.7826964908       31.9967776706       49.6092614589  MEMB      50              0.0000000000
      6731        56  POPS      H7Y            -2.1379969817       30.9804031383       50.2039063973  MEMB      50              0.0000000000
      6732        56  POPS      C38            -1.2592209672       30.2432878664       48.3707253546  MEMB      50              0.0000000000
      6733        56  POPS      H8X            -1.7700904657       29.2646781806       48.5142683724  MEMB      50              0.0000000000
      6734        56  POPS      H8Y            -0.2345244628       30.0299770290       47.9881961530  MEMB      50              0.0000000000
      6735        56  POPS      C39            -2.0066656411       31.0623487019       47.3065470814  MEMB      50              0.0000000000
      6736        56  POPS      H9X            -3.0610720255       31.2371615026       47.6156049976  MEMB      50              0.0000000000
      6737        56  POPS      H9Y            -2.0223780263       30.4698901646       46.3624952231  MEMB      50              0.0000000000
      6738        56  POPS      C310           -1.3128750697       32.4052074158       47.0389556180  MEMB      50              0.0000000000
      6739        56  POPS      H10X           -0.2131708987       32.2202365342       47.0084519311  MEMB      50              0.0000000000
      6740        56  POPS      H10Y           -1.5118636444       33.1021638932       47.8834831186  MEMB      50              0.0000000000
      6741        56  POPS      C311           -1.7199166516       33.0791810564       45.7247685682  MEMB      50              0.0000000000
      6742        56  POPS      H11X           -2.7834372532       33.4034520055       45.7798809157  MEMB      50              0.0000000000
      6743        56  POPS      H11Y           -1.6270211324       32.3387952643       44.8987643592  MEMB      50              0.0000000000
      6744        56  POPS      C312           -0.8129035373       34.2823569670       45.4240359725  MEMB      50              0.0000000000
      6745        56  POPS      H12X            0.2285074554       33.9135115924       45.2767664560  MEMB      50              0.0000000000
      6746        56  POPS      H12Y           -0.8039893077       34.9599778865       46.3080285422  MEMB      50              0.0000000000
      6747        56  POPS      C313           -1.2307636795       35.0949402897       44.1903106352  MEMB      50              0.0000000000
      6748        56  POPS      H13X           -0.4845595853       35.9092518441       44.0520998756  MEMB      50              0.0000000000
      6749        56  POPS      H13Y           -2.2111397636       35.5656421459       44.3971997517  MEMB      50              0.0000000000
      6750        56  POPS      C314           -1.3256731644       34.2502299659       42.9127442562  MEMB      50              0.0000000000
      6751        56  POPS      H14X           -2.1701036016       33.5302850325       43.0103147747  MEMB      50              0.0000000000
      6752        56  POPS      H14Y           -0.3986310676       33.6442689401       42.8601418490  MEMB      50              0.0000000000
      6753        56  POPS      C315           -1.5362716960       35.0292897597       41.5951993664  MEMB      50              0.0000000000
      6754        56  POPS      H15X           -2.5896121655       35.3567601017       41.5466858166  MEMB      50              0.0000000000
      6755        56  POPS      H15Y           -1.4031748692       34.3149011296       40.7521367108  MEMB      50              0.0000000000
      6756        56  POPS      C316           -0.6698351969       36.2694117873       41.3442191660  MEMB      50              0.0000000000
      6757        56  POPS      H16X            0.4003899610       36.0025691513       41.2659376028  MEMB      50              0.0000000000
      6758        56  POPS      H16Y           -0.7909688590       37.0148352609       42.1572509650  MEMB      50              0.0000000000
      6759        56  POPS      H16Z           -0.9660195211       36.7573293228       40.3903480523  MEMB      50              0.0000000000
      6760        57  POPC      N               6.8499971104       51.3805004233       62.1845068506  MEMB      51              0.0000000000
      6761        57  POPC      C12             6.5409743939       52.0108048162       60.8276146781  MEMB      51              0.0000000000
      6762        57  POPC      H12A            6.1888028080       51.2517001989       60.1378352063  MEMB      51              0.0000000000
      6763        57  POPC      H12B            7.4607228729       52.4092279938       60.4123918256  MEMB      51              0.0000000000
      6764        57  POPC      C13             7.9437573077       52.1667356349       62.8479694115  MEMB      51              0.0000000000
      6765        57  POPC      H13A            7.7047683097       53.2376397406       62.8022913796  MEMB      51              0.0000000000
      6766        57  POPC      H13B            8.0138249975       51.9513166521       63.9109466344  MEMB      51              0.0000000000
      6767        57  POPC      H13C            8.9052537684       52.0225151967       62.3888924443  MEMB      51              0.0000000000
      6768        57  POPC      C14             5.6512648332       51.4769350394       63.0880700159  MEMB      51              0.0000000000
      6769        57  POPC      H14A            5.3652849473       52.5271214698       63.1928922984  MEMB      51              0.0000000000
      6770        57  POPC      H14B            4.7806644018       50.9719295023       62.6832482515  MEMB      51              0.0000000000
      6771        57  POPC      H14C            5.8615233726       51.0923735826       64.0775801175  MEMB      51              0.0000000000
      6772        57  POPC      C15             7.2091336122       49.9301071533       62.0463371414  MEMB      51              0.0000000000
      6773        57  POPC      H15A            7.5070942993       49.5059297170       62.9977718606  MEMB      51              0.0000000000
      6774        57  POPC      H15B            8.0014334263       49.7745940216       61.3348948027  MEMB      51              0.0000000000
      6775        57  POPC      H15C            6.3486899246       49.3718646025       61.6847946935  MEMB      51              0.0000000000
      6776        57  POPC      C11             5.5295125690       53.1879751989       60.7922041561  MEMB      51              0.0000000000
      6777        57  POPC      H11A            4.5146062860       52.7982308059       61.0288479948  MEMB      51              0.0000000000
      6778        57  POPC      H11B            5.4719067680       53.5886603063       59.7499953781  MEMB      51              0.0000000000
      6779        57  POPC      P               6.7157961881       55.4813178107       61.4206175221  MEMB      51              0.0000000000
      6780        57  POPC      O13             7.6644538927       55.6112451434       62.5505180949  MEMB      51              0.0000000000
      6781        57  POPC      O14             5.8144998139       56.6251051582       61.1532211489  MEMB      51              0.0000000000
      6782        57  POPC      O12             5.8569016094       54.1956909000       61.7390431203  MEMB      51              0.0000000000
      6783        57  POPC      O11             7.4853268004       55.0519836076       60.0836586655  MEMB      51              0.0000000000
      6784        57  POPC      C1              8.8932669454       54.8011726349       60.1643922123  MEMB      51              0.0000000000
      6785        57  POPC      HA              9.1051909562       53.9431292161       60.8332926400  MEMB      51              0.0000000000
      6786        57  POPC      HB              9.3956984808       55.6965553449       60.6049491221  MEMB      51              0.0000000000
      6787        57  POPC      C2              9.6100361665       54.5624888446       58.7853843353  MEMB      51              0.0000000000
      6788        57  POPC      HS             10.6695748207       54.8922391528       58.9213903438  MEMB      51              0.0000000000
      6789        57  POPC      O21             8.9747904448       55.2796186237       57.7111553530  MEMB      51              0.0000000000
      6790        57  POPC      C21             9.1569541759       56.5887366321       57.8407565758  MEMB      51              0.0000000000
      6791        57  POPC      O22             9.9230173502       57.1211831625       58.6181209246  MEMB      51              0.0000000000
      6792        57  POPC      C22             8.3774045750       57.3451842282       56.7857772154  MEMB      51              0.0000000000
      6793        57  POPC      H2R             7.8601437651       56.6202222973       56.1279002875  MEMB      51              0.0000000000
      6794        57  POPC      H2S             9.1143273227       57.9007828835       56.1674712453  MEMB      51              0.0000000000
      6795        57  POPC      C3              9.7126042335       53.0600255225       58.3614770877  MEMB      51              0.0000000000
      6796        57  POPC      HX             10.0894628626       52.5170959073       59.2532192882  MEMB      51              0.0000000000
      6797        57  POPC      HY             10.5014826244       52.9855947548       57.5736981029  MEMB      51              0.0000000000
      6798        57  POPC      O31             8.4576797132       52.4695254703       57.9630614713  MEMB      51              0.0000000000
      6799        57  POPC      C31             8.2821951614       52.2537820318       56.6528576992  MEMB      51              0.0000000000
      6800        57  POPC      O32             9.1423281666       52.3335679929       55.7987357553  MEMB      51              0.0000000000
      6801        57  POPC      C32             6.8000760678       51.9285185924       56.4353057126  MEMB      51              0.0000000000
      6802        57  POPC      H2X             6.2071993942       52.7202174834       56.9407145778  MEMB      51              0.0000000000
      6803        57  POPC      H2Y             6.6015611394       50.9729791347       56.9619861031  MEMB      51              0.0000000000
      6804        57  POPC      C23             7.4000706534       58.3540815500       57.4305520699  MEMB      51              0.0000000000
      6805        57  POPC      H3R             7.9664662442       59.1484049257       57.9736761313  MEMB      51              0.0000000000
      6806        57  POPC      H3S             6.7410614553       57.8488371818       58.1761937607  MEMB      51              0.0000000000
      6807        57  POPC      C24             6.5264715621       58.9959228685       56.3542102256  MEMB      51              0.0000000000
      6808        57  POPC      H4R             7.2044657134       59.3513924211       55.5460298026  MEMB      51              0.0000000000
      6809        57  POPC      H4S             5.9965456620       59.8822996911       56.7684197394  MEMB      51              0.0000000000
      6810        57  POPC      C25             5.5099223498       57.9925304794       55.7861610050  MEMB      51              0.0000000000
      6811        57  POPC      H5R             4.5176512227       58.1528882631       56.2636303598  MEMB      51              0.0000000000
      6812        57  POPC      H5S             5.8041678774       56.9573847729       56.0689685912  MEMB      51              0.0000000000
      6813        57  POPC      C26             5.4148298350       58.0566988828       54.2636153144  MEMB      51              0.0000000000
      6814        57  POPC      H6R             6.3094923151       58.5757394302       53.8530140682  MEMB      51              0.0000000000
      6815        57  POPC      H6S             4.5266408772       58.6584389159       53.9913210644  MEMB      51              0.0000000000
      6816        57  POPC      C27             5.3406326175       56.6781788492       53.5971010481  MEMB      51              0.0000000000
      6817        57  POPC      H7R             4.5843675469       56.0469747712       54.1187948237  MEMB      51              0.0000000000
      6818        57  POPC      H7S             6.3298695498       56.1774662207       53.7034557720  MEMB      51              0.0000000000
      6819        57  POPC      C28             4.9734502526       56.7344136419       52.1026731554  MEMB      51              0.0000000000
      6820        57  POPC      H8R             3.8665920202       56.7237131515       52.0218846347  MEMB      51              0.0000000000
      6821        57  POPC      H8S             5.2982129766       55.7716126040       51.6522137855  MEMB      51              0.0000000000
      6822        57  POPC      C29             5.5237406371       57.9360503620       51.3623413497  MEMB      51              0.0000000000
      6823        57  POPC      H91             5.2150978456       58.9148362931       51.7630483982  MEMB      51              0.0000000000
      6824        57  POPC      C210            6.2938563723       57.9014901029       50.2629620700  MEMB      51              0.0000000000
      6825        57  POPC      H101            6.6180214559       58.8454257999       49.7959087378  MEMB      51              0.0000000000
      6826        57  POPC      C211            6.7262209296       56.6215794087       49.6010953569  MEMB      51              0.0000000000
      6827        57  POPC      H11R            7.1763933555       55.9577171469       50.3769889332  MEMB      51              0.0000000000
      6828        57  POPC      H11S            7.5255279208       56.7911547798       48.8486147404  MEMB      51              0.0000000000
      6829        57  POPC      C212            5.5564461529       55.8384924782       48.9671808849  MEMB      51              0.0000000000
      6830        57  POPC      H12R            4.5870353316       56.0421361946       49.4742303510  MEMB      51              0.0000000000
      6831        57  POPC      H12S            5.7701778793       54.7659876166       49.1575392794  MEMB      51              0.0000000000
      6832        57  POPC      C213            5.3676203557       56.0440556859       47.4580890029  MEMB      51              0.0000000000
      6833        57  POPC      H13R            6.3555198248       56.1479868246       46.9574097941  MEMB      51              0.0000000000
      6834        57  POPC      H13S            4.8015939413       56.9864506293       47.2914257662  MEMB      51              0.0000000000
      6835        57  POPC      C214            4.6300525888       54.8499927697       46.8313694789  MEMB      51              0.0000000000
      6836        57  POPC      H14R            4.2512501167       55.1200707648       45.8220085303  MEMB      51              0.0000000000
      6837        57  POPC      H14S            3.7524702230       54.5951006379       47.4671979951  MEMB      51              0.0000000000
      6838        57  POPC      C215            5.5440154564       53.6257380348       46.7088492510  MEMB      51              0.0000000000
      6839        57  POPC      H15R            6.0890357292       53.4722359593       47.6611381846  MEMB      51              0.0000000000
      6840        57  POPC      H15S            6.3170298733       53.8256580938       45.9348506444  MEMB      51              0.0000000000
      6841        57  POPC      C216            4.8157041304       52.3152198703       46.4035856925  MEMB      51              0.0000000000
      6842        57  POPC      H16R            4.3032482406       52.3700604788       45.4235296193  MEMB      51              0.0000000000
      6843        57  POPC      H16S            4.0378792711       52.1253545689       47.1737579646  MEMB      51              0.0000000000
      6844        57  POPC      C217            5.7907644464       51.1430546194       46.3572660888  MEMB      51              0.0000000000
      6845        57  POPC      H17R            6.2298371126       50.9835082945       47.3640730538  MEMB      51              0.0000000000
      6846        57  POPC      H17S            6.6175358318       51.4020222008       45.6579616914  MEMB      51              0.0000000000
      6847        57  POPC      C218            5.1578974218       49.8519456069       45.8911727619  MEMB      51              0.0000000000
      6848        57  POPC      H18R            4.2805278866       49.5947533365       46.5249680163  MEMB      51              0.0000000000
      6849        57  POPC      H18S            4.8186596336       49.9597401979       44.8362755194  MEMB      51              0.0000000000
      6850        57  POPC      H18T            5.8925193477       49.0191942757       45.9467196678  MEMB      51              0.0000000000
      6851        57  POPC      C33             6.3497335188       51.8028125982       54.9595812344  MEMB      51              0.0000000000
      6852        57  POPC      H3X             5.4277466149       51.1731506211       54.9398749567  MEMB      51              0.0000000000
      6853        57  POPC      H3Y             7.1149914966       51.2844960368       54.3428868094  MEMB      51              0.0000000000
      6854        57  POPC      C34             5.9763446366       53.1605858237       54.3495789223  MEMB      51              0.0000000000
      6855        57  POPC      H4X             6.8831020375       53.7925190266       54.2322407378  MEMB      51              0.0000000000
      6856        57  POPC      H4Y             5.3004650229       53.6797434232       55.0704338625  MEMB      51              0.0000000000
      6857        57  POPC      C35             5.2098269594       53.0598270024       53.0194769631  MEMB      51              0.0000000000
      6858        57  POPC      H5X             4.5616140894       53.9659377062       52.9488470704  MEMB      51              0.0000000000
      6859        57  POPC      H5Y             4.5231549133       52.1864417790       53.0152598617  MEMB      51              0.0000000000
      6860        57  POPC      C36             6.0966997233       53.0651845930       51.7658468833  MEMB      51              0.0000000000
      6861        57  POPC      H6X             6.9777732409       53.7283580296       51.9061596185  MEMB      51              0.0000000000
      6862        57  POPC      H6Y             5.4873744250       53.5060209968       50.9424005876  MEMB      51              0.0000000000
      6863        57  POPC      C37             6.5311379004       51.6717357557       51.2985689401  MEMB      51              0.0000000000
      6864        57  POPC      H7X             5.6618510027       50.9811574033       51.3890218697  MEMB      51              0.0000000000
      6865        57  POPC      H7Y             7.3387872819       51.2824300758       51.9545243000  MEMB      51              0.0000000000
      6866        57  POPC      C38             6.9814435742       51.6610710165       49.8270238307  MEMB      51              0.0000000000
      6867        57  POPC      H8X             6.1212391523       51.9912906338       49.2053733745  MEMB      51              0.0000000000
      6868        57  POPC      H8Y             7.2189070850       50.6116214106       49.5417233612  MEMB      51              0.0000000000
      6869        57  POPC      C39             8.1936390379       52.5592799603       49.5260913740  MEMB      51              0.0000000000
      6870        57  POPC      H9X             8.7319966602       52.7198139812       50.4904418574  MEMB      51              0.0000000000
      6871        57  POPC      H9Y             7.8678891296       53.5586243175       49.1670761617  MEMB      51              0.0000000000
      6872        57  POPC      C310            9.2081609013       51.9340324328       48.5501573458  MEMB      51              0.0000000000
      6873        57  POPC      H10X            9.3724834800       50.8801023200       48.8600267396  MEMB      51              0.0000000000
      6874        57  POPC      H10Y           10.1669051794       52.4899843733       48.6559805514  MEMB      51              0.0000000000
      6875        57  POPC      C311            8.8420663098       51.9325442697       47.0615447570  MEMB      51              0.0000000000
      6876        57  POPC      H11X            8.0234847001       52.6600726428       46.8860514448  MEMB      51              0.0000000000
      6877        57  POPC      H11Y            8.4749952380       50.9168235434       46.7933446821  MEMB      51              0.0000000000
      6878        57  POPC      C312           10.0051891040       52.3091247519       46.1295886046  MEMB      51              0.0000000000
      6879        57  POPC      H12X            9.7726728789       51.9400534787       45.1035403828  MEMB      51              0.0000000000
      6880        57  POPC      H12Y           10.9411925224       51.8125128021       46.4647369595  MEMB      51              0.0000000000
      6881        57  POPC      C313           10.1866268882       53.8309038822       46.0633026820  MEMB      51              0.0000000000
      6882        57  POPC      H13X           10.4935570273       54.2091607201       47.0637104949  MEMB      51              0.0000000000
      6883        57  POPC      H13Y            9.1895008596       54.2700912459       45.8233861726  MEMB      51              0.0000000000
      6884        57  POPC      C314           11.1889256900       54.2946089085       44.9995936699  MEMB      51              0.0000000000
      6885        57  POPC      H14X           10.8012269113       54.0017753072       43.9974635846  MEMB      51              0.0000000000
      6886        57  POPC      H14Y           12.1602896407       53.7701187292       45.1471034073  MEMB      51              0.0000000000
      6887        57  POPC      C315           11.4339802578       55.8130654429       45.0253948347  MEMB      51              0.0000000000
      6888        57  POPC      H15X           12.0269608487       56.0923072221       44.1246035789  MEMB      51              0.0000000000
      6889        57  POPC      H15Y           12.0564143853       56.0512910820       45.9196849908  MEMB      51              0.0000000000
      6890        57  POPC      C316           10.1733696415       56.6835853506       45.0720237386  MEMB      51              0.0000000000
      6891        57  POPC      H16X            9.5234425110       56.4803449316       44.1932512569  MEMB      51              0.0000000000
      6892        57  POPC      H16Y           10.4552444192       57.7585947395       45.0654341552  MEMB      51              0.0000000000
      6893        57  POPC      H16Z            9.5935287616       56.4905620673       45.9994930066  MEMB      51              0.0000000000
      6894        58  POPC      N              52.0886896049        4.1230531283       62.0410075275  MEMB      52              0.0000000000
      6895        58  POPC      C12            53.0545971764        2.9449114117       61.9603872730  MEMB      52              0.0000000000
      6896        58  POPC      H12A           53.3738862929        2.8018895721       60.9223930078  MEMB      52              0.0000000000
      6897        58  POPC      H12B           52.5651140320        2.0366639569       62.2717260489  MEMB      52              0.0000000000
      6898        58  POPC      C13            52.7336163352        5.2831884283       61.3285758961  MEMB      52              0.0000000000
      6899        58  POPC      H13A           52.8772083195        5.0759158814       60.2776091907  MEMB      52              0.0000000000
      6900        58  POPC      H13B           52.1982793320        6.2094894565       61.4744876369  MEMB      52              0.0000000000
      6901        58  POPC      H13C           53.7499658123        5.4289593606       61.7213957053  MEMB      52              0.0000000000
      6902        58  POPC      C14            50.7455993061        3.8354034637       61.4488036049  MEMB      52              0.0000000000
      6903        58  POPC      H14A           50.0999691925        4.7030755292       61.5765659600  MEMB      52              0.0000000000
      6904        58  POPC      H14B           50.8352071984        3.6315287165       60.3908055907  MEMB      52              0.0000000000
      6905        58  POPC      H14C           50.2612347549        3.0048348584       61.9628441724  MEMB      52              0.0000000000
      6906        58  POPC      C15            51.8832013056        4.5259606441       63.4714375667  MEMB      52              0.0000000000
      6907        58  POPC      H15A           52.8275158444        4.4947077810       64.0041229099  MEMB      52              0.0000000000
      6908        58  POPC      H15B           51.1709945246        3.8886502890       63.9832599729  MEMB      52              0.0000000000
      6909        58  POPC      H15C           51.4979664381        5.5409117480       63.5306411072  MEMB      52              0.0000000000
      6910        58  POPC      C11            54.3946171810        3.0519764941       62.7507740292  MEMB      52              0.0000000000
      6911        58  POPC      H11A           54.9504069633        2.0867103750       62.6501551132  MEMB      52              0.0000000000
      6912        58  POPC      H11B           54.1841584469        3.1883057853       63.8293361335  MEMB      52              0.0000000000
      6913        58  POPC      P              56.0198495025        4.0428362474       60.9507865702  MEMB      52              0.0000000000
      6914        58  POPC      O13            57.4131366318        3.6775375513       61.2473263355  MEMB      52              0.0000000000
      6915        58  POPC      O14            55.7600224124        5.3075484212       60.2363074112  MEMB      52              0.0000000000
      6916        58  POPC      O12            55.2075719185        4.1374124160       62.3194835696  MEMB      52              0.0000000000
      6917        58  POPC      O11            55.1964722400        2.8895353664       60.2264847477  MEMB      52              0.0000000000
      6918        58  POPC      C1             55.7695255995        1.9910751641       59.2864952199  MEMB      52              0.0000000000
      6919        58  POPC      HA             54.9456072789        1.4185276248       58.8068583819  MEMB      52              0.0000000000
      6920        58  POPC      HB             56.3940744870        1.2533965209       59.8184029719  MEMB      52              0.0000000000
      6921        58  POPC      C2             56.5322707020        2.7130856224       58.1402202071  MEMB      52              0.0000000000
      6922        58  POPC      HS             57.3777045118        3.2960693206       58.5843112296  MEMB      52              0.0000000000
      6923        58  POPC      O21            55.5509187833        3.5434669572       57.5386310883  MEMB      52              0.0000000000
      6924        58  POPC      C21            55.8891532423        4.7625885326       57.2469411642  MEMB      52              0.0000000000
      6925        58  POPC      O22            56.9998412691        5.2076453054       57.0456058035  MEMB      52              0.0000000000
      6926        58  POPC      C22            54.5658309823        5.5328370653       57.1033631599  MEMB      52              0.0000000000
      6927        58  POPC      H2R            54.6242201177        6.4360067998       57.7423092027  MEMB      52              0.0000000000
      6928        58  POPC      H2S            53.7446129650        4.8985900329       57.4999853357  MEMB      52              0.0000000000
      6929        58  POPC      C3             57.1208196960        1.7611152836       57.0741488621  MEMB      52              0.0000000000
      6930        58  POPC      HX             57.8766244234        1.1072183491       57.5345132515  MEMB      52              0.0000000000
      6931        58  POPC      HY             57.6732166327        2.3991988817       56.3424670141  MEMB      52              0.0000000000
      6932        58  POPC      O31            56.0825659531        0.9268567871       56.5130557325  MEMB      52              0.0000000000
      6933        58  POPC      C31            55.8713830891        1.1006161008       55.2270307658  MEMB      52              0.0000000000
      6934        58  POPC      O32            56.5685342911        1.7325946760       54.4525452394  MEMB      52              0.0000000000
      6935        58  POPC      C32            54.5806813259        0.3907355036       54.8151451439  MEMB      52              0.0000000000
      6936        58  POPC      H2X            53.8764833080        0.4478651861       55.6723153054  MEMB      52              0.0000000000
      6937        58  POPC      H2Y            54.8162877513       -0.6680051598       54.5965067117  MEMB      52              0.0000000000
      6938        58  POPC      C23            54.2469688448        5.8888128977       55.6404647551  MEMB      52              0.0000000000
      6939        58  POPC      H3R            54.7673258263        6.8185478733       55.3405470011  MEMB      52              0.0000000000
      6940        58  POPC      H3S            53.1559624740        6.0788813428       55.5659339999  MEMB      52              0.0000000000
      6941        58  POPC      C24            54.5911173253        4.8014284815       54.6235654611  MEMB      52              0.0000000000
      6942        58  POPC      H4R            53.8221521979        4.0074244792       54.7306325959  MEMB      52              0.0000000000
      6943        58  POPC      H4S            55.5921161898        4.3461870996       54.7968154662  MEMB      52              0.0000000000
      6944        58  POPC      C25            54.5990735065        5.3598553247       53.2042889709  MEMB      52              0.0000000000
      6945        58  POPC      H5R            55.5130298414        5.9709619878       53.0329570330  MEMB      52              0.0000000000
      6946        58  POPC      H5S            53.7147234276        6.0100062243       53.0723806197  MEMB      52              0.0000000000
      6947        58  POPC      C26            54.4596465120        4.2675976145       52.1601094231  MEMB      52              0.0000000000
      6948        58  POPC      H6R            53.6191033175        3.6232679730       52.4775491309  MEMB      52              0.0000000000
      6949        58  POPC      H6S            55.3681332025        3.6273504726       52.1227054748  MEMB      52              0.0000000000
      6950        58  POPC      C27            54.0662512426        4.8186136315       50.7917437080  MEMB      52              0.0000000000
      6951        58  POPC      H7R            53.1138917572        5.3890873094       50.8809623158  MEMB      52              0.0000000000
      6952        58  POPC      H7S            53.8462352869        3.9452996195       50.1544363780  MEMB      52              0.0000000000
      6953        58  POPC      C28            55.1137193100        5.7020843388       50.0974166398  MEMB      52              0.0000000000
      6954        58  POPC      H8R            54.9157976849        6.7434023739       50.4164428056  MEMB      52              0.0000000000
      6955        58  POPC      H8S            54.8833653605        5.6556540715       49.0120134933  MEMB      52              0.0000000000
      6956        58  POPC      C29            56.5507317497        5.3526068399       50.3985665195  MEMB      52              0.0000000000
      6957        58  POPC      H91            56.8887623294        5.6464600374       51.4035593001  MEMB      52              0.0000000000
      6958        58  POPC      C210           57.4467976397        4.7713032768       49.5872320918  MEMB      52              0.0000000000
      6959        58  POPC      H101           58.4423889763        4.5572133573       49.9980256718  MEMB      52              0.0000000000
      6960        58  POPC      C211           57.2302585034        4.3276313425       48.1664150154  MEMB      52              0.0000000000
      6961        58  POPC      H11R           58.1188421171        4.5943573679       47.5520372908  MEMB      52              0.0000000000
      6962        58  POPC      H11S           56.3734856946        4.8700102157       47.7155147648  MEMB      52              0.0000000000
      6963        58  POPC      C212           56.9568837740        2.8239133735       47.9737615684  MEMB      52              0.0000000000
      6964        58  POPC      H12R           57.9028432018        2.2565273289       47.9670386066  MEMB      52              0.0000000000
      6965        58  POPC      H12S           56.5532025973        2.7242073446       46.9517034985  MEMB      52              0.0000000000
      6966        58  POPC      C213           55.9707085125        2.2138813308       48.9841086008  MEMB      52              0.0000000000
      6967        58  POPC      H13R           55.1829546317        2.9669722235       49.1569580408  MEMB      52              0.0000000000
      6968        58  POPC      H13S           56.4864302713        2.0327723558       49.9531315918  MEMB      52              0.0000000000
      6969        58  POPC      C214           55.2546771792        0.9398246930       48.5182264730  MEMB      52              0.0000000000
      6970        58  POPC      H14R           54.6364206992        0.5273374692       49.3473424082  MEMB      52              0.0000000000
      6971        58  POPC      H14S           56.0111990399        0.1718530257       48.2659231282  MEMB      52              0.0000000000
      6972        58  POPC      C215           54.3465460736        1.1872120303       47.3078120278  MEMB      52              0.0000000000
      6973        58  POPC      H15R           54.8539356110        1.8487024356       46.5901223338  MEMB      52              0.0000000000
      6974        58  POPC      H15S           53.4173943412        1.7037738779       47.6290191243  MEMB      52              0.0000000000
      6975        58  POPC      C216           54.0392745471       -0.0929056605       46.5445591782  MEMB      52              0.0000000000
      6976        58  POPC      H16R           53.4603320216       -0.7472162910       47.2300107378  MEMB      52              0.0000000000
      6977        58  POPC      H16S           54.9889515251       -0.6164811698       46.3240799473  MEMB      52              0.0000000000
      6978        58  POPC      C217           53.2927430164        0.0880666098       45.2094256422  MEMB      52              0.0000000000
      6979        58  POPC      H17R           52.2939886962        0.5387734834       45.3990902543  MEMB      52              0.0000000000
      6980        58  POPC      H17S           53.1185135307       -0.9458381430       44.8494978095  MEMB      52              0.0000000000
      6981        58  POPC      C218           53.9781037838        0.8548462997       44.0703233571  MEMB      52              0.0000000000
      6982        58  POPC      H18R           55.0296614921        1.0730236901       44.2869235598  MEMB      52              0.0000000000
      6983        58  POPC      H18S           53.4759690493        1.8197978631       43.8645458566  MEMB      52              0.0000000000
      6984        58  POPC      H18T           53.9355040115        0.2794797467       43.1248338457  MEMB      52              0.0000000000
      6985        58  POPC      C33            53.9660863908        1.0980174972       53.5878942325  MEMB      52              0.0000000000
      6986        58  POPC      H3X            54.6407493706        1.0329160534       52.7055908583  MEMB      52              0.0000000000
      6987        58  POPC      H3Y            53.8775116590        2.1690563394       53.8565782901  MEMB      52              0.0000000000
      6988        58  POPC      C34            52.5565236916        0.6209793436       53.2208433644  MEMB      52              0.0000000000
      6989        58  POPC      H4X            51.9720001571        0.5692367504       54.1687596334  MEMB      52              0.0000000000
      6990        58  POPC      H4Y            52.6035223772       -0.4070153405       52.7992137831  MEMB      52              0.0000000000
      6991        58  POPC      C35            51.8144776868        1.5646035823       52.2453194223  MEMB      52              0.0000000000
      6992        58  POPC      H5X            51.8887923042        2.6134009175       52.5914638913  MEMB      52              0.0000000000
      6993        58  POPC      H5Y            50.7297710130        1.3336807588       52.2568294333  MEMB      52              0.0000000000
      6994        58  POPC      C36            52.2684427253        1.4248448360       50.7838422568  MEMB      52              0.0000000000
      6995        58  POPC      H6X            52.4550327626        0.3388500162       50.6062539795  MEMB      52              0.0000000000
      6996        58  POPC      H6Y            53.2333022203        1.9439456449       50.6200685242  MEMB      52              0.0000000000
      6997        58  POPC      C37            51.2179507664        1.8571504814       49.7349396213  MEMB      52              0.0000000000
      6998        58  POPC      H7X            50.2246807408        1.4416450521       50.0115841358  MEMB      52              0.0000000000
      6999        58  POPC      H7Y            51.5156059933        1.3795799149       48.7758293050  MEMB      52              0.0000000000
      7000        58  POPC      C38            51.0707204262        3.3705934974       49.4910487127  MEMB      52              0.0000000000
      7001        58  POPC      H8X            52.0624026678        3.8087218507       49.2723539005  MEMB      52              0.0000000000
      7002        58  POPC      H8Y            50.6791689811        3.8465978477       50.4173410655  MEMB      52              0.0000000000
      7003        58  POPC      C39            50.1463475547        3.7198063063       48.3047860434  MEMB      52              0.0000000000
      7004        58  POPC      H9X            49.8706610862        4.7967692929       48.3421172678  MEMB      52              0.0000000000
      7005        58  POPC      H9Y            49.2104813302        3.1287922312       48.4067666716  MEMB      52              0.0000000000
      7006        58  POPC      C310           50.7479321294        3.4151033198       46.9225392803  MEMB      52              0.0000000000
      7007        58  POPC      H10X           49.9447424316        3.4391054233       46.1524596501  MEMB      52              0.0000000000
      7008        58  POPC      H10Y           51.1343266019        2.3738989659       46.9454084883  MEMB      52              0.0000000000
      7009        58  POPC      C311           51.8672371456        4.3748031157       46.4745642968  MEMB      52              0.0000000000
      7010        58  POPC      H11X           52.4980451254        4.6614434284       47.3435506378  MEMB      52              0.0000000000
      7011        58  POPC      H11Y           51.4023124611        5.2955868097       46.0686689147  MEMB      52              0.0000000000
      7012        58  POPC      C312           52.7580553001        3.7105285188       45.4165178600  MEMB      52              0.0000000000
      7013        58  POPC      H12X           52.2962255164        3.7547776128       44.4095408174  MEMB      52              0.0000000000
      7014        58  POPC      H12Y           52.7629608284        2.6384302775       45.7036797536  MEMB      52              0.0000000000
      7015        58  POPC      C313           54.2495810765        4.1065072484       45.3873510966  MEMB      52              0.0000000000
      7016        58  POPC      H13X           54.8148245028        3.1903322012       45.1118500819  MEMB      52              0.0000000000
      7017        58  POPC      H13Y           54.5943424188        4.4092746272       46.3976536516  MEMB      52              0.0000000000
      7018        58  POPC      C314           54.6380911236        5.1231339433       44.3183061463  MEMB      52              0.0000000000
      7019        58  POPC      H14X           54.4431356403        6.1406695420       44.7090961075  MEMB      52              0.0000000000
      7020        58  POPC      H14Y           53.9784709287        4.9669832870       43.4340335690  MEMB      52              0.0000000000
      7021        58  POPC      C315           56.0692035000        5.0002686004       43.7563509092  MEMB      52              0.0000000000
      7022        58  POPC      H15X           56.3135610898        6.0054722643       43.3588549198  MEMB      52              0.0000000000
      7023        58  POPC      H15Y           56.0399801641        4.2948314769       42.8934263657  MEMB      52              0.0000000000
      7024        58  POPC      C316           57.2092130550        4.5556336226       44.6798504632  MEMB      52              0.0000000000
      7025        58  POPC      H16X           58.1346139524        4.3953930529       44.0863711123  MEMB      52              0.0000000000
      7026        58  POPC      H16Y           56.9658599114        3.5950621547       45.1702868543  MEMB      52              0.0000000000
      7027        58  POPC      H16Z           57.4331349764        5.3072642013       45.4627762434  MEMB      52              0.0000000000
      7028        59  POPC      N              60.2266505819       56.0520028039       62.8687211398  MEMB      53              0.0000000000
      7029        59  POPC      C12            59.8560983854       55.5443824334       61.4789726205  MEMB      53              0.0000000000
      7030        59  POPC      H12A           59.2950192223       54.6220131920       61.5665109274  MEMB      53              0.0000000000
      7031        59  POPC      H12B           60.7511695044       55.2685538420       60.9261746452  MEMB      53              0.0000000000
      7032        59  POPC      C13            59.0125071483       56.1166593661       63.7443209549  MEMB      53              0.0000000000
      7033        59  POPC      H13A           58.6684244103       55.1188225141       63.9796730254  MEMB      53              0.0000000000
      7034        59  POPC      H13B           59.1911193900       56.6614718038       64.6610409671  MEMB      53              0.0000000000
      7035        59  POPC      H13C           58.2137976684       56.6264468064       63.2025123957  MEMB      53              0.0000000000
      7036        59  POPC      C14            61.2031100106       55.1385932558       63.5229634407  MEMB      53              0.0000000000
      7037        59  POPC      H14A           62.0574270225       54.9732377629       62.8777700642  MEMB      53              0.0000000000
      7038        59  POPC      H14B           61.5737423484       55.5649246705       64.4513215073  MEMB      53              0.0000000000
      7039        59  POPC      H14C           60.7619612172       54.1811735970       63.7666353555  MEMB      53              0.0000000000
      7040        59  POPC      C15            60.8156238544       57.4326714008       62.7322399216  MEMB      53              0.0000000000
      7041        59  POPC      H15A           60.0805737656       58.0764929312       62.2431649390  MEMB      53              0.0000000000
      7042        59  POPC      H15B           61.7151938289       57.4251103705       62.1286637232  MEMB      53              0.0000000000
      7043        59  POPC      H15C           61.0458785364       57.8949278242       63.6886433007  MEMB      53              0.0000000000
      7044        59  POPC      C11            59.0408372935       56.5322214585       60.6065836602  MEMB      53              0.0000000000
      7045        59  POPC      H11A           58.7799560480       56.0452606934       59.6439483335  MEMB      53              0.0000000000
      7046        59  POPC      H11B           59.6692981169       57.4114185292       60.3433151073  MEMB      53              0.0000000000
      7047        59  POPC      P              56.4394593048       57.0605085881       60.7644155292  MEMB      53              0.0000000000
      7048        59  POPC      O13            56.2460626318       58.3978722117       60.1733798962  MEMB      53              0.0000000000
      7049        59  POPC      O14            55.5337474916       56.7008353568       61.8716365547  MEMB      53              0.0000000000
      7050        59  POPC      O12            57.8974536965       56.9673109478       61.3172754498  MEMB      53              0.0000000000
      7051        59  POPC      O11            56.3480387689       55.9497816465       59.6522061481  MEMB      53              0.0000000000
      7052        59  POPC      C1             56.3184014228       54.5606465933       59.9923351334  MEMB      53              0.0000000000
      7053        59  POPC      HA             55.3792213505       54.3048966391       60.5358452866  MEMB      53              0.0000000000
      7054        59  POPC      HB             57.1907969345       54.2821223266       60.6264076891  MEMB      53              0.0000000000
      7055        59  POPC      C2             56.3883813578       53.6749184212       58.7163399481  MEMB      53              0.0000000000
      7056        59  POPC      HS             56.6556413131       52.6327508809       59.0150882504  MEMB      53              0.0000000000
      7057        59  POPC      O21            57.3376952666       54.1744487107       57.7658955244  MEMB      53              0.0000000000
      7058        59  POPC      C21            58.6086084474       54.0656315694       58.0312408292  MEMB      53              0.0000000000
      7059        59  POPC      O22            59.0990746013       53.6835042572       59.0801057035  MEMB      53              0.0000000000
      7060        59  POPC      C22            59.3811475743       54.3903339655       56.7559987321  MEMB      53              0.0000000000
      7061        59  POPC      H2R            60.3328537358       54.8778068171       57.0585855663  MEMB      53              0.0000000000
      7062        59  POPC      H2S            58.7908258162       55.0928056668       56.1321819553  MEMB      53              0.0000000000
      7063        59  POPC      C3             55.0014774846       53.5939705481       58.0106877584  MEMB      53              0.0000000000
      7064        59  POPC      HX             54.3134595388       53.0509709709       58.6943945664  MEMB      53              0.0000000000
      7065        59  POPC      HY             55.0890861628       52.9812410547       57.0806447452  MEMB      53              0.0000000000
      7066        59  POPC      O31            54.4305584499       54.8920132708       57.7509314909  MEMB      53              0.0000000000
      7067        59  POPC      C31            54.9598693831       55.5239530692       56.7085814101  MEMB      53              0.0000000000
      7068        59  POPC      O32            55.6920227283       55.0328498922       55.8693598091  MEMB      53              0.0000000000
      7069        59  POPC      C32            54.3534788649       56.9179390321       56.6013215654  MEMB      53              0.0000000000
      7070        59  POPC      H2X            54.1336996979       57.3012018827       57.6168090279  MEMB      53              0.0000000000
      7071        59  POPC      H2Y            53.4041316020       56.7994846119       56.0327399868  MEMB      53              0.0000000000
      7072        59  POPC      C23            59.7025191414       53.1002407863       55.9660252202  MEMB      53              0.0000000000
      7073        59  POPC      H3R            60.3076515615       52.4298002002       56.6246540908  MEMB      53              0.0000000000
      7074        59  POPC      H3S            60.3413116581       53.3650814256       55.0964367437  MEMB      53              0.0000000000
      7075        59  POPC      C24            58.4840345963       52.3039052820       55.4592525618  MEMB      53              0.0000000000
      7076        59  POPC      H4R            57.7582017629       52.1509877533       56.2879579471  MEMB      53              0.0000000000
      7077        59  POPC      H4S            58.8729574511       51.2977090935       55.1854371786  MEMB      53              0.0000000000
      7078        59  POPC      C25            57.7585499859       52.8882910008       54.2306883777  MEMB      53              0.0000000000
      7079        59  POPC      H5R            57.6372377784       53.9877896173       54.3599059682  MEMB      53              0.0000000000
      7080        59  POPC      H5S            56.7361323164       52.4526214407       54.1644521541  MEMB      53              0.0000000000
      7081        59  POPC      C26            58.5182065763       52.5601731954       52.9349604526  MEMB      53              0.0000000000
      7082        59  POPC      H6R            58.6379972734       51.4701760745       52.7979203960  MEMB      53              0.0000000000
      7083        59  POPC      H6S            59.5310665764       53.0016434959       53.0736335927  MEMB      53              0.0000000000
      7084        59  POPC      C27            57.9758028019       53.1644196778       51.6330929262  MEMB      53              0.0000000000
      7085        59  POPC      H7R            58.8883117606       53.3322385762       51.0138469579  MEMB      53              0.0000000000
      7086        59  POPC      H7S            57.5189784666       54.1463075858       51.8791372892  MEMB      53              0.0000000000
      7087        59  POPC      C28            57.0722509549       52.3001374614       50.7311000650  MEMB      53              0.0000000000
      7088        59  POPC      H8R            56.1628188798       52.0021363288       51.2842475851  MEMB      53              0.0000000000
      7089        59  POPC      H8S            57.6183259477       51.3573107896       50.4999198945  MEMB      53              0.0000000000
      7090        59  POPC      C29            56.7490268984       53.0327926544       49.4417756342  MEMB      53              0.0000000000
      7091        59  POPC      H91            57.1652449404       52.5534516166       48.5389030173  MEMB      53              0.0000000000
      7092        59  POPC      C210           56.0221157399       54.1662605503       49.2904052007  MEMB      53              0.0000000000
      7093        59  POPC      H101           55.8773493671       54.5514439874       48.2689672127  MEMB      53              0.0000000000
      7094        59  POPC      C211           55.3508656816       54.9824696066       50.3807829300  MEMB      53              0.0000000000
      7095        59  POPC      H11R           55.5551702110       54.4890108480       51.3565449459  MEMB      53              0.0000000000
      7096        59  POPC      H11S           54.2530996131       54.9005631845       50.2373920403  MEMB      53              0.0000000000
      7097        59  POPC      C212           55.6470728896       56.4749291637       50.7258478222  MEMB      53              0.0000000000
      7098        59  POPC      H12R           56.6181524298       56.5596555008       51.2281944844  MEMB      53              0.0000000000
      7099        59  POPC      H12S           54.9107693571       56.7445048621       51.5202938658  MEMB      53              0.0000000000
      7100        59  POPC      C213           55.5350834014       57.5666967773       49.6480202348  MEMB      53              0.0000000000
      7101        59  POPC      H13R           55.6966228359       58.5561032071       50.1381657027  MEMB      53              0.0000000000
      7102        59  POPC      H13S           54.4933993643       57.5507930446       49.2824783129  MEMB      53              0.0000000000
      7103        59  POPC      C214           56.4949569321       57.5039473951       48.4521610048  MEMB      53              0.0000000000
      7104        59  POPC      H14R           56.5176681010       56.4841911095       48.0205407374  MEMB      53              0.0000000000
      7105        59  POPC      H14S           57.5266294240       57.7329662991       48.7869339369  MEMB      53              0.0000000000
      7106        59  POPC      C215           56.1013321052       58.4817628922       47.3309738077  MEMB      53              0.0000000000
      7107        59  POPC      H15R           56.7914049322       58.3228299022       46.4705983728  MEMB      53              0.0000000000
      7108        59  POPC      H15S           56.2344021134       59.5297620604       47.6787353787  MEMB      53              0.0000000000
      7109        59  POPC      C216           54.6587335807       58.3006158907       46.8311944251  MEMB      53              0.0000000000
      7110        59  POPC      H16R           54.5744532961       58.8135134268       45.8509495318  MEMB      53              0.0000000000
      7111        59  POPC      H16S           53.9331473009       58.7693031638       47.5339875866  MEMB      53              0.0000000000
      7112        59  POPC      C217           54.2691276047       56.8404826231       46.6053440283  MEMB      53              0.0000000000
      7113        59  POPC      H17R           54.1695997384       56.2974882667       47.5712175352  MEMB      53              0.0000000000
      7114        59  POPC      H17S           55.1129232976       56.3837556771       46.0534751158  MEMB      53              0.0000000000
      7115        59  POPC      C218           52.9857648425       56.6803801240       45.7984982744  MEMB      53              0.0000000000
      7116        59  POPC      H18R           53.1119455580       57.1012024339       44.7779145533  MEMB      53              0.0000000000
      7117        59  POPC      H18S           52.1429577146       57.2038978106       46.2952902350  MEMB      53              0.0000000000
      7118        59  POPC      H18T           52.7373185118       55.6046053205       45.7007363949  MEMB      53              0.0000000000
      7119        59  POPC      C33            55.2843737166       57.8748199992       55.8317700137  MEMB      53              0.0000000000
      7120        59  POPC      H3X            54.6937684806       58.7449761214       55.4657352278  MEMB      53              0.0000000000
      7121        59  POPC      H3Y            55.6896505652       57.3619815450       54.9288433050  MEMB      53              0.0000000000
      7122        59  POPC      C34            56.4359248003       58.4357484493       56.6780416037  MEMB      53              0.0000000000
      7123        59  POPC      H4X            57.1305994548       57.6154990325       56.9684153804  MEMB      53              0.0000000000
      7124        59  POPC      H4Y            56.0252736391       58.8567594097       57.6249375369  MEMB      53              0.0000000000
      7125        59  POPC      C35            57.2113264960       59.5431976053       55.9462584600  MEMB      53              0.0000000000
      7126        59  POPC      H5X            58.0806084232       59.8591307470       56.5668666244  MEMB      53              0.0000000000
      7127        59  POPC      H5Y            56.5414377642       60.4271255848       55.8448094335  MEMB      53              0.0000000000
      7128        59  POPC      C36            57.7151464394       59.1501439587       54.5421065933  MEMB      53              0.0000000000
      7129        59  POPC      H6X            57.9928778534       60.0742957729       53.9958380302  MEMB      53              0.0000000000
      7130        59  POPC      H6Y            56.9108896802       58.6760075427       53.9466827680  MEMB      53              0.0000000000
      7131        59  POPC      C37            58.9494932690       58.2437869737       54.5722928653  MEMB      53              0.0000000000
      7132        59  POPC      H7X            58.6594039019       57.2393557192       54.9526024821  MEMB      53              0.0000000000
      7133        59  POPC      H7Y            59.6758777580       58.6722194844       55.3003151918  MEMB      53              0.0000000000
      7134        59  POPC      C38            59.6611863050       58.1329992165       53.2100661631  MEMB      53              0.0000000000
      7135        59  POPC      H8X            60.4927574798       57.4044593230       53.3350090510  MEMB      53              0.0000000000
      7136        59  POPC      H8Y            60.0846724268       59.1246649039       52.9354502874  MEMB      53              0.0000000000
      7137        59  POPC      C39            58.7661611768       57.6304753864       52.0709264769  MEMB      53              0.0000000000
      7138        59  POPC      H9X            57.9703802271       58.3705034209       51.8364084527  MEMB      53              0.0000000000
      7139        59  POPC      H9Y            58.2575035644       56.7215886039       52.4730567027  MEMB      53              0.0000000000
      7140        59  POPC      C310           59.5176404331       57.2448979449       50.7758461724  MEMB      53              0.0000000000
      7141        59  POPC      H10X           60.6077221879       57.2460454390       50.9649729902  MEMB      53              0.0000000000
      7142        59  POPC      H10Y           59.2996155406       57.9772847373       49.9718804653  MEMB      53              0.0000000000
      7143        59  POPC      C311           59.1566231304       55.8172618163       50.3604656719  MEMB      53              0.0000000000
      7144        59  POPC      H11X           58.0638457565       55.7217935771       50.2682318230  MEMB      53              0.0000000000
      7145        59  POPC      H11Y           59.4806225264       55.2020584354       51.2288392880  MEMB      53              0.0000000000
      7146        59  POPC      C312           59.7046582925       55.1872542012       49.0681397593  MEMB      53              0.0000000000
      7147        59  POPC      H12X           58.9133914311       54.5046342259       48.6808450252  MEMB      53              0.0000000000
      7148        59  POPC      H12Y           60.5492828460       54.5244262243       49.3233238129  MEMB      53              0.0000000000
      7149        59  POPC      C313           60.0559949954       56.1428087158       47.9301378798  MEMB      53              0.0000000000
      7150        59  POPC      H13X           60.9348879554       56.7669806882       48.1973977153  MEMB      53              0.0000000000
      7151        59  POPC      H13Y           59.1906472967       56.8226747279       47.7751657713  MEMB      53              0.0000000000
      7152        59  POPC      C314           60.3097786808       55.4035396857       46.6077051855  MEMB      53              0.0000000000
      7153        59  POPC      H14X           59.6032726951       54.5447586958       46.5251937853  MEMB      53              0.0000000000
      7154        59  POPC      H14Y           61.3416755126       54.9887024984       46.5827496065  MEMB      53              0.0000000000
      7155        59  POPC      C315           60.0676144006       56.3337242434       45.4205297985  MEMB      53              0.0000000000
      7156        59  POPC      H15X           60.8056204568       57.1633035336       45.4499329692  MEMB      53              0.0000000000
      7157        59  POPC      H15Y           59.0546225914       56.7838590673       45.5442370783  MEMB      53              0.0000000000
      7158        59  POPC      C316           60.1149604189       55.6508715776       44.0600175054  MEMB      53              0.0000000000
      7159        59  POPC      H16X           61.1498218831       55.3736076234       43.7682156487  MEMB      53              0.0000000000
      7160        59  POPC      H16Y           59.7084074906       56.3528710015       43.3051525258  MEMB      53              0.0000000000
      7161        59  POPC      H16Z           59.4806307531       54.7408297048       44.0618436429  MEMB      53              0.0000000000
      7162        60  POPC      N              -1.0337882086       22.8690325287       61.6035039140  MEMB      54              0.0000000000
      7163        60  POPC      C12            -2.1085601292       23.9447172642       61.7829549117  MEMB      54              0.0000000000
      7164        60  POPC      H12A           -2.3039645270       24.0474609094       62.8445723610  MEMB      54              0.0000000000
      7165        60  POPC      H12B           -3.0456183054       23.5508056854       61.3801019690  MEMB      54              0.0000000000
      7166        60  POPC      C13            -0.6602422130       22.6978514009       60.1620383998  MEMB      54              0.0000000000
      7167        60  POPC      H13A            0.0426095724       21.8762247262       60.0529053102  MEMB      54              0.0000000000
      7168        60  POPC      H13B           -1.5381438214       22.3676204971       59.5985521197  MEMB      54              0.0000000000
      7169        60  POPC      H13C           -0.2630296257       23.6030608876       59.7223587270  MEMB      54              0.0000000000
      7170        60  POPC      C14             0.1791328948       23.1791663098       62.3977912592  MEMB      54              0.0000000000
      7171        60  POPC      H14A            0.4389309610       24.2250059920       62.2488544986  MEMB      54              0.0000000000
      7172        60  POPC      H14B           -0.0087150900       23.0133500854       63.4495471320  MEMB      54              0.0000000000
      7173        60  POPC      H14C            1.0206347909       22.5765299520       62.0970063855  MEMB      54              0.0000000000
      7174        60  POPC      C15            -1.6162622161       21.5603105079       62.0580039949  MEMB      54              0.0000000000
      7175        60  POPC      H15A           -0.9222348126       20.7408586803       61.9418157475  MEMB      54              0.0000000000
      7176        60  POPC      H15B           -2.5009020038       21.3148441841       61.4597544610  MEMB      54              0.0000000000
      7177        60  POPC      H15C           -1.9542214358       21.5852081716       63.0892416790  MEMB      54              0.0000000000
      7178        60  POPC      C11            -1.9031718996       25.3801590182       61.2169400396  MEMB      54              0.0000000000
      7179        60  POPC      H11A           -2.8806553465       25.9128303038       61.2972947718  MEMB      54              0.0000000000
      7180        60  POPC      H11B           -1.6548128992       25.3266841227       60.1331643893  MEMB      54              0.0000000000
      7181        60  POPC      P              -0.6281291116       27.6438343894       61.7473548176  MEMB      54              0.0000000000
      7182        60  POPC      O13            -0.2856785951       28.0766744263       63.1213272178  MEMB      54              0.0000000000
      7183        60  POPC      O14            -1.7784541900       28.3282687729       61.1075688408  MEMB      54              0.0000000000
      7184        60  POPC      O12            -0.8972524052       26.0827501564       61.9444437277  MEMB      54              0.0000000000
      7185        60  POPC      O11             0.6556622790       27.6102122395       60.8355666238  MEMB      54              0.0000000000
      7186        60  POPC      C1              1.1266304039       26.4262244201       60.1850727725  MEMB      54              0.0000000000
      7187        60  POPC      HA              0.4643633709       25.5355570621       60.2437146151  MEMB      54              0.0000000000
      7188        60  POPC      HB              2.1076848354       26.1426991553       60.6234344364  MEMB      54              0.0000000000
      7189        60  POPC      C2              1.3207781695       26.6919191567       58.6880823407  MEMB      54              0.0000000000
      7190        60  POPC      HS              1.9164909945       27.6383156207       58.6372011221  MEMB      54              0.0000000000
      7191        60  POPC      O21             0.0368335036       26.8342229048       58.0308619067  MEMB      54              0.0000000000
      7192        60  POPC      C21             0.2227940331       27.3196217925       56.8244748731  MEMB      54              0.0000000000
      7193        60  POPC      O22             1.3062097571       27.6403707039       56.3656897519  MEMB      54              0.0000000000
      7194        60  POPC      C22            -1.0760240352       27.4020316053       56.0407158764  MEMB      54              0.0000000000
      7195        60  POPC      H2R            -1.5794719196       28.3557624539       56.3064042648  MEMB      54              0.0000000000
      7196        60  POPC      H2S            -1.7332608936       26.5561465231       56.3138874699  MEMB      54              0.0000000000
      7197        60  POPC      C3              2.1633103454       25.5409739929       58.0484765907  MEMB      54              0.0000000000
      7198        60  POPC      HX              2.8009153748       25.0885515474       58.8352368653  MEMB      54              0.0000000000
      7199        60  POPC      HY              2.8308884167       26.0800420723       57.3362228952  MEMB      54              0.0000000000
      7200        60  POPC      O31             1.3793845573       24.5004881971       57.4219814845  MEMB      54              0.0000000000
      7201        60  POPC      C31             1.7973280968       24.1787440239       56.1920421158  MEMB      54              0.0000000000
      7202        60  POPC      O32             2.7613865001       24.6445427301       55.6243790595  MEMB      54              0.0000000000
      7203        60  POPC      C32             0.9028007856       23.0933765851       55.6180292216  MEMB      54              0.0000000000
      7204        60  POPC      H2X             0.0118329452       23.0382903448       56.2673695275  MEMB      54              0.0000000000
      7205        60  POPC      H2Y             1.4384598764       22.1229637894       55.6636732900  MEMB      54              0.0000000000
      7206        60  POPC      C23            -0.7093431920       27.3888633879       54.5414130633  MEMB      54              0.0000000000
      7207        60  POPC      H3R             0.2230295439       26.7973006299       54.3783504322  MEMB      54              0.0000000000
      7208        60  POPC      H3S            -0.4946008033       28.4282768505       54.2343485913  MEMB      54              0.0000000000
      7209        60  POPC      C24            -1.7467862353       26.7854110099       53.6007744767  MEMB      54              0.0000000000
      7210        60  POPC      H4R            -2.7293032456       27.2885974857       53.7385399903  MEMB      54              0.0000000000
      7211        60  POPC      H4S            -1.8849267587       25.7151125783       53.8734273451  MEMB      54              0.0000000000
      7212        60  POPC      C25            -1.3187839067       26.8946221952       52.1199259441  MEMB      54              0.0000000000
      7213        60  POPC      H5R            -1.5376932493       27.9201008728       51.7584775174  MEMB      54              0.0000000000
      7214        60  POPC      H5S            -1.9839869929       26.2310658958       51.5436685182  MEMB      54              0.0000000000
      7215        60  POPC      C26             0.1707965473       26.5763013936       51.8184703396  MEMB      54              0.0000000000
      7216        60  POPC      H6R             0.4913638671       25.6750498012       52.3772590257  MEMB      54              0.0000000000
      7217        60  POPC      H6S             0.7924872657       27.4222817929       52.1878101316  MEMB      54              0.0000000000
      7218        60  POPC      C27             0.5066630671       26.3585955760       50.3277031448  MEMB      54              0.0000000000
      7219        60  POPC      H7R             1.0990439480       27.2152922705       49.9416804446  MEMB      54              0.0000000000
      7220        60  POPC      H7S            -0.4510280229       26.3643094508       49.7618056402  MEMB      54              0.0000000000
      7221        60  POPC      C28             1.2303337144       25.0257783537       49.9941023299  MEMB      54              0.0000000000
      7222        60  POPC      H8R             1.1338128239       24.8953144649       48.8929847075  MEMB      54              0.0000000000
      7223        60  POPC      H8S             0.6370149501       24.1965825019       50.4384453410  MEMB      54              0.0000000000
      7224        60  POPC      C29             2.6803744749       24.8879350348       50.4234599637  MEMB      54              0.0000000000
      7225        60  POPC      H91             2.8447182010       24.8487530082       51.5129856823  MEMB      54              0.0000000000
      7226        60  POPC      C210            3.7530002020       24.8127846151       49.6026723059  MEMB      54              0.0000000000
      7227        60  POPC      H101            4.7576398426       24.6600745144       50.0292270664  MEMB      54              0.0000000000
      7228        60  POPC      C211            3.6777181818       24.8601417255       48.0975728440  MEMB      54              0.0000000000
      7229        60  POPC      H11R            2.7987129949       25.4809620273       47.8056958050  MEMB      54              0.0000000000
      7230        60  POPC      H11S            3.4827594211       23.8403576460       47.6918698163  MEMB      54              0.0000000000
      7231        60  POPC      C212            4.8632066806       25.4588287957       47.2970640045  MEMB      54              0.0000000000
      7232        60  POPC      H12R            5.6336473336       24.6750559875       47.1640647554  MEMB      54              0.0000000000
      7233        60  POPC      H12S            5.3315031178       26.3155494618       47.8253580733  MEMB      54              0.0000000000
      7234        60  POPC      C213            4.2883915620       25.9165522430       45.9450867089  MEMB      54              0.0000000000
      7235        60  POPC      H13R            3.5723833225       26.7289762983       46.1666178288  MEMB      54              0.0000000000
      7236        60  POPC      H13S            3.6924818839       25.0623223098       45.5557057596  MEMB      54              0.0000000000
      7237        60  POPC      C214            5.2038005447       26.4092881042       44.8122053132  MEMB      54              0.0000000000
      7238        60  POPC      H14R            6.1477245497       25.8296502693       44.7901991351  MEMB      54              0.0000000000
      7239        60  POPC      H14S            5.4671173313       27.4711261691       44.9769522326  MEMB      54              0.0000000000
      7240        60  POPC      C215            4.4904137056       26.2370580559       43.4519133698  MEMB      54              0.0000000000
      7241        60  POPC      H15R            3.4377025718       25.9283091694       43.6416552636  MEMB      54              0.0000000000
      7242        60  POPC      H15S            4.9861130281       25.3980205782       42.9154381287  MEMB      54              0.0000000000
      7243        60  POPC      C216            4.4263433693       27.4466579524       42.5004527851  MEMB      54              0.0000000000
      7244        60  POPC      H16R            3.7679968405       28.2409933799       42.9060431232  MEMB      54              0.0000000000
      7245        60  POPC      H16S            3.9523622804       27.1026503036       41.5534281520  MEMB      54              0.0000000000
      7246        60  POPC      C217            5.8018290828       28.0285287466       42.1840526233  MEMB      54              0.0000000000
      7247        60  POPC      H17R            6.4689457466       27.1902703976       41.8752967257  MEMB      54              0.0000000000
      7248        60  POPC      H17S            6.2008119764       28.4673040490       43.1250720481  MEMB      54              0.0000000000
      7249        60  POPC      C218            5.8234078769       29.1025096832       41.0971992998  MEMB      54              0.0000000000
      7250        60  POPC      H18R            5.4920722435       28.6779119848       40.1260069658  MEMB      54              0.0000000000
      7251        60  POPC      H18S            6.8537667665       29.4923374733       40.9637803697  MEMB      54              0.0000000000
      7252        60  POPC      H18T            5.1599646524       29.9504401068       41.3707657806  MEMB      54              0.0000000000
      7253        60  POPC      C33             0.4796038987       23.4107526191       54.1678372814  MEMB      54              0.0000000000
      7254        60  POPC      H3X             1.3068889728       23.1995524494       53.4556356487  MEMB      54              0.0000000000
      7255        60  POPC      H3Y             0.2488576399       24.4988861194       54.1008778577  MEMB      54              0.0000000000
      7256        60  POPC      C34            -0.7957074275       22.6657497327       53.7628986863  MEMB      54              0.0000000000
      7257        60  POPC      H4X            -1.5381253782       22.8796588566       54.5499334946  MEMB      54              0.0000000000
      7258        60  POPC      H4Y            -0.6318732943       21.5712507820       53.7126984873  MEMB      54              0.0000000000
      7259        60  POPC      C35            -1.4479289314       23.1819642665       52.4831956263  MEMB      54              0.0000000000
      7260        60  POPC      H5X            -1.0606226749       22.6162133236       51.6089476998  MEMB      54              0.0000000000
      7261        60  POPC      H5Y            -1.1365763096       24.2383852700       52.3621704162  MEMB      54              0.0000000000
      7262        60  POPC      C36            -2.9876575956       23.1591094670       52.5285783837  MEMB      54              0.0000000000
      7263        60  POPC      H6X            -3.3519671135       23.5762736243       53.4962834255  MEMB      54              0.0000000000
      7264        60  POPC      H6Y            -3.3382300375       22.1088974626       52.4926638722  MEMB      54              0.0000000000
      7265        60  POPC      C37            -3.6423350680       23.9757694372       51.3985741568  MEMB      54              0.0000000000
      7266        60  POPC      H7X            -3.8676910217       24.9944604965       51.7873869437  MEMB      54              0.0000000000
      7267        60  POPC      H7Y            -4.6192379828       23.5094641818       51.1405225950  MEMB      54              0.0000000000
      7268        60  POPC      C38            -2.7750109093       24.1202091295       50.1336230538  MEMB      54              0.0000000000
      7269        60  POPC      H8X            -2.4187078609       23.1309893216       49.8078725401  MEMB      54              0.0000000000
      7270        60  POPC      H8Y            -1.8490024880       24.6851664410       50.3448147478  MEMB      54              0.0000000000
      7271        60  POPC      C39            -3.4993639169       24.8173775267       48.9792029726  MEMB      54              0.0000000000
      7272        60  POPC      H9X            -3.8997532718       25.7938464262       49.3304345965  MEMB      54              0.0000000000
      7273        60  POPC      H9Y            -4.3500389419       24.1758972047       48.6811398016  MEMB      54              0.0000000000
      7274        60  POPC      C310           -2.6306695360       25.0116929045       47.7275503369  MEMB      54              0.0000000000
      7275        60  POPC      H10X           -1.7057541026       25.5677597062       47.9916288649  MEMB      54              0.0000000000
      7276        60  POPC      H10Y           -3.2083829542       25.6303829579       47.0055772603  MEMB      54              0.0000000000
      7277        60  POPC      C311           -2.2754705434       23.6628102327       47.0817837233  MEMB      54              0.0000000000
      7278        60  POPC      H11X           -3.2021526658       23.0477533551       47.0223673268  MEMB      54              0.0000000000
      7279        60  POPC      H11Y           -1.5644410148       23.1262420659       47.7510568550  MEMB      54              0.0000000000
      7280        60  POPC      C312           -1.6426675451       23.7342672874       45.6830378584  MEMB      54              0.0000000000
      7281        60  POPC      H12X           -1.5474628167       22.6891404009       45.3061119364  MEMB      54              0.0000000000
      7282        60  POPC      H12Y           -0.6156147564       24.1521700807       45.7730241246  MEMB      54              0.0000000000
      7283        60  POPC      C313           -2.4182249911       24.5496884001       44.6344318564  MEMB      54              0.0000000000
      7284        60  POPC      H13X           -2.3921068068       25.6253927405       44.9071393783  MEMB      54              0.0000000000
      7285        60  POPC      H13Y           -3.4732756307       24.2485738590       44.6239746913  MEMB      54              0.0000000000
      7286        60  POPC      C314           -1.8282596514       24.3481958594       43.2342273044  MEMB      54              0.0000000000
      7287        60  POPC      H14X           -2.2222541492       23.4227411813       42.7605715558  MEMB      54              0.0000000000
      7288        60  POPC      H14Y           -0.7407039777       24.2004720393       43.4003084069  MEMB      54              0.0000000000
      7289        60  POPC      C315           -1.9459964451       25.5400697059       42.2803290391  MEMB      54              0.0000000000
      7290        60  POPC      H15X           -1.7931631594       26.4832444643       42.8405432854  MEMB      54              0.0000000000
      7291        60  POPC      H15Y           -2.9726147698       25.6252656080       41.8748949769  MEMB      54              0.0000000000
      7292        60  POPC      C316           -0.8968344721       25.4482701445       41.1635845754  MEMB      54              0.0000000000
      7293        60  POPC      H16X           -0.7185308586       26.4413816221       40.7008034967  MEMB      54              0.0000000000
      7294        60  POPC      H16Y           -1.2222396752       24.7353623827       40.3752253894  MEMB      54              0.0000000000
      7295        60  POPC      H16Z            0.0734618857       25.0911302854       41.5697870760  MEMB      54              0.0000000000
      7296        61  POPC      N              53.6352449718       60.9588572888       61.0030972525  MEMB      55              0.0000000000
      7297        61  POPC      C12            53.2023887412       61.2227111308       62.4387139287  MEMB      55              0.0000000000
      7298        61  POPC      H12A           53.7614410630       60.5930393134       63.1188502230  MEMB      55              0.0000000000
      7299        61  POPC      H12B           52.1663320234       60.8963897781       62.5337996150  MEMB      55              0.0000000000
      7300        61  POPC      C13            53.0741299719       62.0361972126       60.1270708973  MEMB      55              0.0000000000
      7301        61  POPC      H13A           53.4169750153       63.0040786906       60.4707112274  MEMB      55              0.0000000000
      7302        61  POPC      H13B           53.3261961561       61.9040186548       59.0914239550  MEMB      55              0.0000000000
      7303        61  POPC      H13C           51.9880658798       62.0550760842       60.2400371150  MEMB      55              0.0000000000
      7304        61  POPC      C14            55.1107439605       60.8824483804       60.8477228585  MEMB      55              0.0000000000
      7305        61  POPC      H14A           55.6108309061       61.7225929471       61.2836478354  MEMB      55              0.0000000000
      7306        61  POPC      H14B           55.4808394655       59.9337426704       61.2539038393  MEMB      55              0.0000000000
      7307        61  POPC      H14C           55.3766748109       60.7794535856       59.7987936170  MEMB      55              0.0000000000
      7308        61  POPC      C15            53.0963706207       59.6319467182       60.5483819698  MEMB      55              0.0000000000
      7309        61  POPC      H15A           53.3618868055       58.8586241064       61.2629437668  MEMB      55              0.0000000000
      7310        61  POPC      H15B           53.5381220284       59.3368412462       59.6011452182  MEMB      55              0.0000000000
      7311        61  POPC      H15C           52.0195659293       59.6988644819       60.4363586115  MEMB      55              0.0000000000
      7312        61  POPC      C11            53.2024535262       62.7014603569       62.9430114478  MEMB      55              0.0000000000
      7313        61  POPC      H11A           54.1170167628       63.1999696696       62.5551749647  MEMB      55              0.0000000000
      7314        61  POPC      H11B           53.2858124187       62.7077056009       64.0542445718  MEMB      55              0.0000000000
      7315        61  POPC      P              50.6101152901       62.9563578032       62.9819354006  MEMB      55              0.0000000000
      7316        61  POPC      O13            49.5869382046       63.9630123236       62.6518824655  MEMB      55              0.0000000000
      7317        61  POPC      O14            50.6765273553       62.5152832292       64.3863371448  MEMB      55              0.0000000000
      7318        61  POPC      O12            52.0433208170       63.4572540296       62.5355668826  MEMB      55              0.0000000000
      7319        61  POPC      O11            50.5062435491       61.7145759831       61.9961343843  MEMB      55              0.0000000000
      7320        61  POPC      C1             49.3002858787       61.0384447799       61.6669550419  MEMB      55              0.0000000000
      7321        61  POPC      HA             48.4141149430       61.4921677640       62.1682392458  MEMB      55              0.0000000000
      7322        61  POPC      HB             49.3784833836       59.9999777463       62.0605484811  MEMB      55              0.0000000000
      7323        61  POPC      C2             49.0017574154       60.9123150398       60.1222876593  MEMB      55              0.0000000000
      7324        61  POPC      HS             48.4316269870       59.9617853735       59.9963231647  MEMB      55              0.0000000000
      7325        61  POPC      O21            50.2089879295       60.8994216854       59.3012644733  MEMB      55              0.0000000000
      7326        61  POPC      C21            49.9205484322       60.7735268885       57.9935079863  MEMB      55              0.0000000000
      7327        61  POPC      O22            48.8577174194       60.3808623193       57.5523420730  MEMB      55              0.0000000000
      7328        61  POPC      C22            51.1074904059       61.2050729799       57.1398965237  MEMB      55              0.0000000000
      7329        61  POPC      H2R            52.0183602456       60.7515309593       57.5809389503  MEMB      55              0.0000000000
      7330        61  POPC      H2S            51.1805371265       62.3115355784       57.1917812442  MEMB      55              0.0000000000
      7331        61  POPC      C3             48.0586347788       62.0676225670       59.6497389932  MEMB      55              0.0000000000
      7332        61  POPC      HX             47.3619193799       62.2622190764       60.4978938334  MEMB      55              0.0000000000
      7333        61  POPC      HY             47.4197085736       61.7196164304       58.8082286861  MEMB      55              0.0000000000
      7334        61  POPC      O31            48.8189755233       63.2208687119       59.2170339016  MEMB      55              0.0000000000
      7335        61  POPC      C31            48.2326309042       64.3615024830       59.5170644972  MEMB      55              0.0000000000
      7336        61  POPC      O32            47.1169287673       64.4742371451       59.9907468003  MEMB      55              0.0000000000
      7337        61  POPC      C32            49.1515082270       65.5466429489       59.2028076360  MEMB      55              0.0000000000
      7338        61  POPC      H2X            50.0547986976       65.1862540459       58.6772884215  MEMB      55              0.0000000000
      7339        61  POPC      H2Y            49.4622459267       65.9779064174       60.1767824799  MEMB      55              0.0000000000
      7340        61  POPC      C23            50.9777898251       60.7497920168       55.6683745463  MEMB      55              0.0000000000
      7341        61  POPC      H3R            50.7179819940       59.6674514531       55.6146784035  MEMB      55              0.0000000000
      7342        61  POPC      H3S            51.9736192456       60.8728628850       55.1858229035  MEMB      55              0.0000000000
      7343        61  POPC      C24            49.9556478947       61.5503984261       54.8460718436  MEMB      55              0.0000000000
      7344        61  POPC      H4R            50.2846056821       62.6057015365       54.7821821485  MEMB      55              0.0000000000
      7345        61  POPC      H4S            48.9659805552       61.5316053286       55.3585200586  MEMB      55              0.0000000000
      7346        61  POPC      C25            49.7463287112       60.9657130711       53.4398419199  MEMB      55              0.0000000000
      7347        61  POPC      H5R            48.9310385077       61.4794099248       52.8992835891  MEMB      55              0.0000000000
      7348        61  POPC      H5S            49.3749821689       59.9295314042       53.5775934294  MEMB      55              0.0000000000
      7349        61  POPC      C26            50.9977232790       60.8860071571       52.5502151821  MEMB      55              0.0000000000
      7350        61  POPC      H6R            51.8981599275       61.2503820019       53.0845902774  MEMB      55              0.0000000000
      7351        61  POPC      H6S            50.8578701457       61.5435975848       51.6618584623  MEMB      55              0.0000000000
      7352        61  POPC      C27            51.2001015477       59.4362892043       52.0830166272  MEMB      55              0.0000000000
      7353        61  POPC      H7R            50.2333170713       59.1354142788       51.6153163212  MEMB      55              0.0000000000
      7354        61  POPC      H7S            51.3471641776       58.7750098495       52.9666819225  MEMB      55              0.0000000000
      7355        61  POPC      C28            52.3547782209       59.2448848232       51.0895573630  MEMB      55              0.0000000000
      7356        61  POPC      H8R            53.3101196244       59.1465417749       51.6517616007  MEMB      55              0.0000000000
      7357        61  POPC      H8S            52.4424700118       60.1590722134       50.4590043575  MEMB      55              0.0000000000
      7358        61  POPC      C29            52.1095431947       58.0403207004       50.2189757502  MEMB      55              0.0000000000
      7359        61  POPC      H91            52.6354977989       57.1158389798       50.5005564600  MEMB      55              0.0000000000
      7360        61  POPC      C210           51.2704129153       58.0258939664       49.1732011963  MEMB      55              0.0000000000
      7361        61  POPC      H101           51.1832723171       57.1255026202       48.5534983417  MEMB      55              0.0000000000
      7362        61  POPC      C211           50.4499249106       59.1944521919       48.7095768731  MEMB      55              0.0000000000
      7363        61  POPC      H11R           51.1075573833       60.0601350075       48.4648168680  MEMB      55              0.0000000000
      7364        61  POPC      H11S           49.7385803242       59.5270981388       49.4971262151  MEMB      55              0.0000000000
      7365        61  POPC      C212           49.6547084727       58.8204536244       47.4553072356  MEMB      55              0.0000000000
      7366        61  POPC      H12R           49.0563168438       57.8965901768       47.5853028381  MEMB      55              0.0000000000
      7367        61  POPC      H12S           50.3978680386       58.5921734806       46.6572364202  MEMB      55              0.0000000000
      7368        61  POPC      C213           48.7386297273       59.9686625377       47.0065880354  MEMB      55              0.0000000000
      7369        61  POPC      H13R           49.2094761364       60.8993926693       47.3603402058  MEMB      55              0.0000000000
      7370        61  POPC      H13S           47.7335582534       59.9203992874       47.4699142892  MEMB      55              0.0000000000
      7371        61  POPC      C214           48.6782548387       59.9989765090       45.4885335905  MEMB      55              0.0000000000
      7372        61  POPC      H14R           47.9795764460       59.2318517563       45.1036634636  MEMB      55              0.0000000000
      7373        61  POPC      H14S           49.7029929109       59.7037422879       45.1697289271  MEMB      55              0.0000000000
      7374        61  POPC      C215           48.5133144838       61.3400511729       44.7805648729  MEMB      55              0.0000000000
      7375        61  POPC      H15R           49.0939031158       62.1291759410       45.3059284393  MEMB      55              0.0000000000
      7376        61  POPC      H15S           47.4649899213       61.6771551757       44.7047753505  MEMB      55              0.0000000000
      7377        61  POPC      C216           49.0602778017       61.1254945742       43.3697510755  MEMB      55              0.0000000000
      7378        61  POPC      H16R           48.6339823775       60.1774035896       42.9843833512  MEMB      55              0.0000000000
      7379        61  POPC      H16S           50.1632490151       60.9951119242       43.4371861125  MEMB      55              0.0000000000
      7380        61  POPC      C217           48.7745279900       62.2227567782       42.3726684435  MEMB      55              0.0000000000
      7381        61  POPC      H17R           47.7614739444       62.0953857396       41.9267838970  MEMB      55              0.0000000000
      7382        61  POPC      H17S           49.5215960227       62.1374342346       41.5460826876  MEMB      55              0.0000000000
      7383        61  POPC      C218           48.8894218818       63.5834167996       43.0218946985  MEMB      55              0.0000000000
      7384        61  POPC      H18R           49.7859859993       63.6336147265       43.6640347358  MEMB      55              0.0000000000
      7385        61  POPC      H18S           48.0028344319       63.8295978653       43.6439733504  MEMB      55              0.0000000000
      7386        61  POPC      H18T           49.0108290413       64.3291724542       42.2197144424  MEMB      55              0.0000000000
      7387        61  POPC      C33            48.4222728511       66.6191863722       58.3620556159  MEMB      55              0.0000000000
      7388        61  POPC      H3X            49.0769199127       67.5118181412       58.2463690663  MEMB      55              0.0000000000
      7389        61  POPC      H3Y            47.4932735346       66.9499617242       58.8832667460  MEMB      55              0.0000000000
      7390        61  POPC      C34            47.9958765544       66.1317155632       56.9738878960  MEMB      55              0.0000000000
      7391        61  POPC      H4X            47.4151326763       66.9491299792       56.4826009001  MEMB      55              0.0000000000
      7392        61  POPC      H4Y            47.3036184532       65.2658675031       57.0845556442  MEMB      55              0.0000000000
      7393        61  POPC      C35            49.1361471156       65.7133788481       56.0397150922  MEMB      55              0.0000000000
      7394        61  POPC      H5X            49.7890567255       64.9502408520       56.5157991169  MEMB      55              0.0000000000
      7395        61  POPC      H5Y            49.7629952718       66.6026525398       55.8065855924  MEMB      55              0.0000000000
      7396        61  POPC      C36            48.5667948684       65.1291753626       54.7445464686  MEMB      55              0.0000000000
      7397        61  POPC      H6X            47.8030683962       65.8337735044       54.3519138624  MEMB      55              0.0000000000
      7398        61  POPC      H6Y            48.0876130720       64.1448880201       54.9454432203  MEMB      55              0.0000000000
      7399        61  POPC      C37            49.5861593290       65.0297645582       53.6239646792  MEMB      55              0.0000000000
      7400        61  POPC      H7X            50.4841744459       64.4634735886       53.9452528683  MEMB      55              0.0000000000
      7401        61  POPC      H7Y            49.9062430737       66.0678620855       53.4212837078  MEMB      55              0.0000000000
      7402        61  POPC      C38            48.9919069613       64.4352069421       52.3472112776  MEMB      55              0.0000000000
      7403        61  POPC      H8X            48.0670704872       64.9842941061       52.0640179060  MEMB      55              0.0000000000
      7404        61  POPC      H8Y            48.7026655809       63.3861720023       52.5351753612  MEMB      55              0.0000000000
      7405        61  POPC      C39            49.9905197611       64.5094999395       51.1991820526  MEMB      55              0.0000000000
      7406        61  POPC      H9X            50.9280236161       63.9788185193       51.4796552055  MEMB      55              0.0000000000
      7407        61  POPC      H9Y            50.2505395965       65.5775871089       51.0425586601  MEMB      55              0.0000000000
      7408        61  POPC      C310           49.4620648446       63.9517010239       49.8806730617  MEMB      55              0.0000000000
      7409        61  POPC      H10X           48.4687040802       64.3968502157       49.6500977741  MEMB      55              0.0000000000
      7410        61  POPC      H10Y           49.3399028468       62.8469772787       49.9628040040  MEMB      55              0.0000000000
      7411        61  POPC      C311           50.4480614502       64.2842854758       48.7638661903  MEMB      55              0.0000000000
      7412        61  POPC      H11X           51.4345866219       63.8423974818       49.0332005503  MEMB      55              0.0000000000
      7413        61  POPC      H11Y           50.5791339377       65.3873265311       48.7029083900  MEMB      55              0.0000000000
      7414        61  POPC      C312           50.0273055300       63.7615374556       47.3938928757  MEMB      55              0.0000000000
      7415        61  POPC      H12X           49.1144745351       64.2999222440       47.0531885551  MEMB      55              0.0000000000
      7416        61  POPC      H12Y           49.7846744472       62.6935299434       47.4731387713  MEMB      55              0.0000000000
      7417        61  POPC      C313           51.1495664333       63.9426579142       46.3766216230  MEMB      55              0.0000000000
      7418        61  POPC      H13X           51.5538313758       64.9491479122       46.5898759609  MEMB      55              0.0000000000
      7419        61  POPC      H13Y           50.7520029235       63.9771713799       45.3468145534  MEMB      55              0.0000000000
      7420        61  POPC      C314           52.2700942200       62.8881989513       46.4428032499  MEMB      55              0.0000000000
      7421        61  POPC      H14X           52.5319627809       62.6304477987       47.4899151079  MEMB      55              0.0000000000
      7422        61  POPC      H14Y           53.1828943964       63.3214324499       45.9758381589  MEMB      55              0.0000000000
      7423        61  POPC      C315           51.9594956908       61.6187092088       45.6468042075  MEMB      55              0.0000000000
      7424        61  POPC      H15X           51.3242759063       61.9079036661       44.7859717496  MEMB      55              0.0000000000
      7425        61  POPC      H15Y           51.3797723779       60.9107815567       46.2784350458  MEMB      55              0.0000000000
      7426        61  POPC      C316           53.2095412399       60.9362095560       45.0957658742  MEMB      55              0.0000000000
      7427        61  POPC      H16X           52.9536835973       59.9519874881       44.6436499040  MEMB      55              0.0000000000
      7428        61  POPC      H16Y           53.9363144594       60.7848035596       45.9208679466  MEMB      55              0.0000000000
      7429        61  POPC      H16Z           53.6911079839       61.5681375197       44.3196898121  MEMB      55              0.0000000000
      7430        62  POPC      N               9.7543776088        5.1372636682       63.9490640173  MEMB      56              0.0000000000
      7431        62  POPC      C12             9.3126090046        5.6399585339       62.5843795809  MEMB      56              0.0000000000
      7432        62  POPC      H12A            9.8762740253        6.5321308328       62.3557625654  MEMB      56              0.0000000000
      7433        62  POPC      H12B            8.2710115157        5.9184737513       62.6465661382  MEMB      56              0.0000000000
      7434        62  POPC      C13             9.7667423806        6.2573323988       64.9382177702  MEMB      56              0.0000000000
      7435        62  POPC      H13A           10.0059527778        5.8897035788       65.9359592666  MEMB      56              0.0000000000
      7436        62  POPC      H13B           10.4546664846        7.0531391232       64.6938204687  MEMB      56              0.0000000000
      7437        62  POPC      H13C            8.7740047405        6.6895933053       64.9727351077  MEMB      56              0.0000000000
      7438        62  POPC      C14             8.7962864248        4.0987229803       64.4445692009  MEMB      56              0.0000000000
      7439        62  POPC      H14A            9.0598229612        3.7865890832       65.4512960533  MEMB      56              0.0000000000
      7440        62  POPC      H14B            7.7822003592        4.4887654151       64.4932301561  MEMB      56              0.0000000000
      7441        62  POPC      H14C            8.7836657530        3.2297907835       63.8018828413  MEMB      56              0.0000000000
      7442        62  POPC      C15            11.1016011459        4.5254249835       63.8529784209  MEMB      56              0.0000000000
      7443        62  POPC      H15A           11.1198342935        3.8589452642       62.9880058996  MEMB      56              0.0000000000
      7444        62  POPC      H15B           11.3239294289        3.9813655017       64.7556384286  MEMB      56              0.0000000000
      7445        62  POPC      H15C           11.8623991319        5.2638407561       63.6431775344  MEMB      56              0.0000000000
      7446        62  POPC      C11             9.5372772839        4.7171825486       61.3712394018  MEMB      56              0.0000000000
      7447        62  POPC      H11A            8.9798979526        5.1425676027       60.5057800651  MEMB      56              0.0000000000
      7448        62  POPC      H11B            9.1399284853        3.6937595224       61.5529487642  MEMB      56              0.0000000000
      7449        62  POPC      P              11.4528666638        4.0418010428       59.7534588342  MEMB      56              0.0000000000
      7450        62  POPC      O13            10.3703392675        3.2709229527       59.1049269268  MEMB      56              0.0000000000
      7451        62  POPC      O14            12.6985882621        3.3232871818       60.0801485486  MEMB      56              0.0000000000
      7452        62  POPC      O12            10.9314499495        4.6770963639       61.0997393862  MEMB      56              0.0000000000
      7453        62  POPC      O11            11.8050094791        5.3330654622       58.9011700975  MEMB      56              0.0000000000
      7454        62  POPC      C1             12.8753230137        6.1985958212       59.3262524916  MEMB      56              0.0000000000
      7455        62  POPC      HA             13.8609553277        5.7280685080       59.1017394243  MEMB      56              0.0000000000
      7456        62  POPC      HB             12.8330023943        6.3763222358       60.4254348748  MEMB      56              0.0000000000
      7457        62  POPC      C2             12.8686322174        7.6064064822       58.6270361968  MEMB      56              0.0000000000
      7458        62  POPC      HS             13.6441113429        8.2270482480       59.1357495625  MEMB      56              0.0000000000
      7459        62  POPC      O21            11.5859344049        8.2415700682       58.7198255307  MEMB      56              0.0000000000
      7460        62  POPC      C21            11.1819928030        8.5272747460       59.9347861259  MEMB      56              0.0000000000
      7461        62  POPC      O22            11.8963662425        8.6800229517       60.9181701495  MEMB      56              0.0000000000
      7462        62  POPC      C22             9.6760070708        8.7791912647       59.9085378403  MEMB      56              0.0000000000
      7463        62  POPC      H2R             9.5213324940        9.8515103908       60.1415010044  MEMB      56              0.0000000000
      7464        62  POPC      H2S             9.2211751372        8.1852197237       60.7251245348  MEMB      56              0.0000000000
      7465        62  POPC      C3             13.2731287159        7.5765540653       57.1221099280  MEMB      56              0.0000000000
      7466        62  POPC      HX             14.3706254426        7.3684655684       57.0950695663  MEMB      56              0.0000000000
      7467        62  POPC      HY             13.1431973159        8.6024136826       56.7104970378  MEMB      56              0.0000000000
      7468        62  POPC      O31            12.4647052939        6.6638914552       56.3333915989  MEMB      56              0.0000000000
      7469        62  POPC      C31            13.0171104835        5.4510494606       56.2678437509  MEMB      56              0.0000000000
      7470        62  POPC      O32            14.1912682758        5.2110105735       56.4991455708  MEMB      56              0.0000000000
      7471        62  POPC      C32            11.9582789560        4.4162603706       55.8639159034  MEMB      56              0.0000000000
      7472        62  POPC      H2X            11.0069508730        4.9368047803       55.6450692253  MEMB      56              0.0000000000
      7473        62  POPC      H2Y            11.7856600106        3.7736114865       56.7522465500  MEMB      56              0.0000000000
      7474        62  POPC      C23             8.9894965391        8.4392544508       58.5619537206  MEMB      56              0.0000000000
      7475        62  POPC      H3R             9.4800580642        8.9576775571       57.7082709192  MEMB      56              0.0000000000
      7476        62  POPC      H3S             7.9334056136        8.7744993263       58.5892759670  MEMB      56              0.0000000000
      7477        62  POPC      C24             8.9138907321        6.9402398279       58.3145326767  MEMB      56              0.0000000000
      7478        62  POPC      H4R             8.2487864776        6.4991358495       59.0882094882  MEMB      56              0.0000000000
      7479        62  POPC      H4S             9.9150392706        6.4798888673       58.4232030911  MEMB      56              0.0000000000
      7480        62  POPC      C25             8.3959662188        6.5623054548       56.9332611539  MEMB      56              0.0000000000
      7481        62  POPC      H5R             9.1203665748        6.8882710717       56.1542307817  MEMB      56              0.0000000000
      7482        62  POPC      H5S             7.4212629288        7.0682953855       56.7481443250  MEMB      56              0.0000000000
      7483        62  POPC      C26             8.2082030272        5.0509740378       56.8783781421  MEMB      56              0.0000000000
      7484        62  POPC      H6R             7.6199660412        4.7648818711       57.7824529338  MEMB      56              0.0000000000
      7485        62  POPC      H6S             9.1780570640        4.5109949313       56.9596710544  MEMB      56              0.0000000000
      7486        62  POPC      C27             7.4217602753        4.5637309128       55.6636942473  MEMB      56              0.0000000000
      7487        62  POPC      H7R             6.6614899671        5.3068492647       55.3418274849  MEMB      56              0.0000000000
      7488        62  POPC      H7S             6.8639389541        3.6850760073       56.0504443830  MEMB      56              0.0000000000
      7489        62  POPC      C28             8.2798481563        4.0694685808       54.4851580756  MEMB      56              0.0000000000
      7490        62  POPC      H8R             7.6786012264        3.3521427048       53.8879112751  MEMB      56              0.0000000000
      7491        62  POPC      H8S             9.1302531245        3.4746258556       54.8852614762  MEMB      56              0.0000000000
      7492        62  POPC      C29             8.7801529569        5.1972843872       53.6279361876  MEMB      56              0.0000000000
      7493        62  POPC      H91             9.6274792462        5.7498125573       54.0646558662  MEMB      56              0.0000000000
      7494        62  POPC      C210            8.2815945587        5.5874680346       52.4400900091  MEMB      56              0.0000000000
      7495        62  POPC      H101            8.7693947576        6.4323003107       51.9309206646  MEMB      56              0.0000000000
      7496        62  POPC      C211            7.1081761767        4.9920394321       51.6923610673  MEMB      56              0.0000000000
      7497        62  POPC      H11R            6.2611922307        5.7131077669       51.7055613317  MEMB      56              0.0000000000
      7498        62  POPC      H11S            6.7287998765        4.0574602777       52.1585397976  MEMB      56              0.0000000000
      7499        62  POPC      C212            7.4369995397        4.6821760859       50.2206204523  MEMB      56              0.0000000000
      7500        62  POPC      H12R            7.9423929378        5.5571339061       49.7521906511  MEMB      56              0.0000000000
      7501        62  POPC      H12S            6.4874460618        4.5139344471       49.6623458851  MEMB      56              0.0000000000
      7502        62  POPC      C213            8.3082183193        3.4297358136       50.0553841220  MEMB      56              0.0000000000
      7503        62  POPC      H13R            7.7065072803        2.5258987285       50.3013335471  MEMB      56              0.0000000000
      7504        62  POPC      H13S            9.1498730770        3.4675594630       50.7820828354  MEMB      56              0.0000000000
      7505        62  POPC      C214            8.8752245015        3.3222218696       48.6367670737  MEMB      56              0.0000000000
      7506        62  POPC      H14R            9.4605377484        4.2465111240       48.4298309772  MEMB      56              0.0000000000
      7507        62  POPC      H14S            8.0334962592        3.2858784543       47.9094283844  MEMB      56              0.0000000000
      7508        62  POPC      C215            9.7850434782        2.1035365441       48.4337801417  MEMB      56              0.0000000000
      7509        62  POPC      H15R            9.2628875431        1.1947184222       48.8123872066  MEMB      56              0.0000000000
      7510        62  POPC      H15S           10.7097818050        2.2355665407       49.0389551109  MEMB      56              0.0000000000
      7511        62  POPC      C216           10.1600527840        1.8752917016       46.9601574433  MEMB      56              0.0000000000
      7512        62  POPC      H16R            9.2372573222        1.6106526112       46.3935511305  MEMB      56              0.0000000000
      7513        62  POPC      H16S           10.8639667587        1.0179078471       46.8909474123  MEMB      56              0.0000000000
      7514        62  POPC      C217           10.8271169393        3.0738564898       46.2758964500  MEMB      56              0.0000000000
      7515        62  POPC      H17R           11.7561578065        3.3431337925       46.8280918776  MEMB      56              0.0000000000
      7516        62  POPC      H17S           10.1443149251        3.9510214329       46.3168560881  MEMB      56              0.0000000000
      7517        62  POPC      C218           11.1616117894        2.7906491526       44.8111897489  MEMB      56              0.0000000000
      7518        62  POPC      H18R           10.2478780184        2.4778248639       44.2616063060  MEMB      56              0.0000000000
      7519        62  POPC      H18S           11.9115155556        1.9761988414       44.7229640316  MEMB      56              0.0000000000
      7520        62  POPC      H18T           11.5682900801        3.7020533717       44.3245163681  MEMB      56              0.0000000000
      7521        62  POPC      C33            12.3637298538        3.5108541242       54.6762784043  MEMB      56              0.0000000000
      7522        62  POPC      H3X            11.6188100764        2.6830120151       54.6000470231  MEMB      56              0.0000000000
      7523        62  POPC      H3Y            13.3579236423        3.0469989328       54.8561005846  MEMB      56              0.0000000000
      7524        62  POPC      C34            12.3536072703        4.2753822817       53.3522415017  MEMB      56              0.0000000000
      7525        62  POPC      H4X            13.0512445614        5.1389012395       53.4250968747  MEMB      56              0.0000000000
      7526        62  POPC      H4Y            11.3316180865        4.6774870331       53.1869054771  MEMB      56              0.0000000000
      7527        62  POPC      C35            12.7111123825        3.4251607556       52.1281045729  MEMB      56              0.0000000000
      7528        62  POPC      H5X            12.1681094053        2.4539190204       52.1808229275  MEMB      56              0.0000000000
      7529        62  POPC      H5Y            13.8036438791        3.2160801175       52.1398091102  MEMB      56              0.0000000000
      7530        62  POPC      C36            12.3281058012        4.1193657720       50.8150552782  MEMB      56              0.0000000000
      7531        62  POPC      H6X            11.2182246147        4.1471555428       50.7291633678  MEMB      56              0.0000000000
      7532        62  POPC      H6Y            12.7104655956        3.5227660136       49.9557709286  MEMB      56              0.0000000000
      7533        62  POPC      C37            12.8526157390        5.5568365244       50.7132003732  MEMB      56              0.0000000000
      7534        62  POPC      H7X            13.9644568027        5.5228975232       50.7204656134  MEMB      56              0.0000000000
      7535        62  POPC      H7Y            12.5272501692        6.1704776403       51.5810897379  MEMB      56              0.0000000000
      7536        62  POPC      C38            12.3648171337        6.2558327880       49.4458998962  MEMB      56              0.0000000000
      7537        62  POPC      H8X            12.2907792724        5.5038828917       48.6311884738  MEMB      56              0.0000000000
      7538        62  POPC      H8Y            13.1108892031        7.0145571431       49.1379732879  MEMB      56              0.0000000000
      7539        62  POPC      C39            11.0297014782        6.9845886586       49.6361651552  MEMB      56              0.0000000000
      7540        62  POPC      H9X            11.1005979003        7.6693710659       50.5120102598  MEMB      56              0.0000000000
      7541        62  POPC      H9Y            10.2408864832        6.2309718437       49.8568678545  MEMB      56              0.0000000000
      7542        62  POPC      C310           10.6237173301        7.8063192922       48.4068385315  MEMB      56              0.0000000000
      7543        62  POPC      H10X           11.2591942691        8.7156495249       48.3214367952  MEMB      56              0.0000000000
      7544        62  POPC      H10Y            9.5755174938        8.1475413909       48.5711111821  MEMB      56              0.0000000000
      7545        62  POPC      C311           10.6923172663        7.0084850444       47.0956639453  MEMB      56              0.0000000000
      7546        62  POPC      H11X            9.8981718180        7.4018061989       46.4264457566  MEMB      56              0.0000000000
      7547        62  POPC      H11Y           10.4295194684        5.9473379175       47.2887153291  MEMB      56              0.0000000000
      7548        62  POPC      C312           12.0413660253        7.1003550620       46.3519456595  MEMB      56              0.0000000000
      7549        62  POPC      H12X           12.5140421604        6.0944652676       46.3166917556  MEMB      56              0.0000000000
      7550        62  POPC      H12Y           12.7335647629        7.7811367196       46.8956634838  MEMB      56              0.0000000000
      7551        62  POPC      C313           11.8538804569        7.6525376635       44.9371344859  MEMB      56              0.0000000000
      7552        62  POPC      H13X           11.7397273933        8.7543447788       45.0253645315  MEMB      56              0.0000000000
      7553        62  POPC      H13Y           10.9094351072        7.2339337457       44.5240142374  MEMB      56              0.0000000000
      7554        62  POPC      C314           12.9712604796        7.3516412061       43.9344738230  MEMB      56              0.0000000000
      7555        62  POPC      H14X           13.7744028254        6.7644458551       44.4183876139  MEMB      56              0.0000000000
      7556        62  POPC      H14Y           13.4197540825        8.3159353139       43.6039445101  MEMB      56              0.0000000000
      7557        62  POPC      C315           12.4416576556        6.6057894246       42.7011881885  MEMB      56              0.0000000000
      7558        62  POPC      H15X           11.6262356621        7.2120101100       42.2444186102  MEMB      56              0.0000000000
      7559        62  POPC      H15Y           11.9854139181        5.6459370754       43.0277939053  MEMB      56              0.0000000000
      7560        62  POPC      C316           13.5017124849        6.3263792314       41.6375622547  MEMB      56              0.0000000000
      7561        62  POPC      H16X           14.0848497481        5.4211026110       41.8854612645  MEMB      56              0.0000000000
      7562        62  POPC      H16Y           14.2090685464        7.1773430423       41.5671508192  MEMB      56              0.0000000000
      7563        62  POPC      H16Z           13.0362037807        6.1653328640       40.6418310011  MEMB      56              0.0000000000
      7564        63  POPC      N              17.7343260312       66.6629444624       62.0121171306  MEMB      57              0.0000000000
      7565        63  POPC      C12            16.7480446285       66.6806217365       60.8541982665  MEMB      57              0.0000000000
      7566        63  POPC      H12A           17.0105426937       65.9053650418       60.1472515626  MEMB      57              0.0000000000
      7567        63  POPC      H12B           16.8339229325       67.6315460377       60.3386487586  MEMB      57              0.0000000000
      7568        63  POPC      C13            19.1305170287       67.0225605661       61.6110539515  MEMB      57              0.0000000000
      7569        63  POPC      H13A           19.8145703307       66.9983869270       62.4554951263  MEMB      57              0.0000000000
      7570        63  POPC      H13B           19.5404785613       66.3237010502       60.8812175004  MEMB      57              0.0000000000
      7571        63  POPC      H13C           19.2274002232       68.0034485073       61.1647428485  MEMB      57              0.0000000000
      7572        63  POPC      C14            17.1949031114       67.6156371004       63.0187803614  MEMB      57              0.0000000000
      7573        63  POPC      H14A           17.7388821386       67.5413143720       63.9524756493  MEMB      57              0.0000000000
      7574        63  POPC      H14B           17.1787160589       68.6354915977       62.6470319470  MEMB      57              0.0000000000
      7575        63  POPC      H14C           16.1647884703       67.3282699521       63.2321274698  MEMB      57              0.0000000000
      7576        63  POPC      C15            17.7456329259       65.3394916200       62.7180406080  MEMB      57              0.0000000000
      7577        63  POPC      H15A           18.2733301378       65.4151645599       63.6602043858  MEMB      57              0.0000000000
      7578        63  POPC      H15B           18.1032042002       64.5308933142       62.1064457949  MEMB      57              0.0000000000
      7579        63  POPC      H15C           16.7188122444       65.0696054308       62.9856298446  MEMB      57              0.0000000000
      7580        63  POPC      C11            15.2370769856       66.4851337861       61.2030370726  MEMB      57              0.0000000000
      7581        63  POPC      H11A           14.6435755963       66.4933815462       60.2541151635  MEMB      57              0.0000000000
      7582        63  POPC      H11B           14.8712267526       67.3749621180       61.7591001081  MEMB      57              0.0000000000
      7583        63  POPC      P              14.8956302200       63.9088250137       61.2378925170  MEMB      57              0.0000000000
      7584        63  POPC      O13            13.4758935161       63.5021711609       61.1531802899  MEMB      57              0.0000000000
      7585        63  POPC      O14            15.8348326515       62.9998737404       61.9343670431  MEMB      57              0.0000000000
      7586        63  POPC      O12            14.9930338508       65.3012835965       61.9845811765  MEMB      57              0.0000000000
      7587        63  POPC      O11            15.4789784829       64.2673867066       59.8075329810  MEMB      57              0.0000000000
      7588        63  POPC      C1             16.3833346092       63.4510435813       59.0675332696  MEMB      57              0.0000000000
      7589        63  POPC      HA             16.0088253460       63.3337734436       58.0257273408  MEMB      57              0.0000000000
      7590        63  POPC      HB             16.4623835379       62.4251187924       59.4940018528  MEMB      57              0.0000000000
      7591        63  POPC      C2             17.8193015602       64.0512832214       58.9907137134  MEMB      57              0.0000000000
      7592        63  POPC      HS             18.0859929381       64.3845608500       60.0206472199  MEMB      57              0.0000000000
      7593        63  POPC      O21            17.8387508625       65.1644804400       58.0488358833  MEMB      57              0.0000000000
      7594        63  POPC      C21            18.9514525296       65.8971074477       58.1767518706  MEMB      57              0.0000000000
      7595        63  POPC      O22            19.8341776717       65.6373391964       58.9747414323  MEMB      57              0.0000000000
      7596        63  POPC      C22            18.9225678826       67.1756319831       57.3458260066  MEMB      57              0.0000000000
      7597        63  POPC      H2R            19.8685100016       67.7272381718       57.5386264102  MEMB      57              0.0000000000
      7598        63  POPC      H2S            18.0812505052       67.7923933156       57.7285103547  MEMB      57              0.0000000000
      7599        63  POPC      C3             18.8071403551       62.9178963758       58.5837219240  MEMB      57              0.0000000000
      7600        63  POPC      HX             18.8809700654       62.2293248961       59.4555089847  MEMB      57              0.0000000000
      7601        63  POPC      HY             19.8379131981       63.2967463003       58.3960722683  MEMB      57              0.0000000000
      7602        63  POPC      O31            18.2567369044       62.1735071601       57.4863545534  MEMB      57              0.0000000000
      7603        63  POPC      C31            18.6808137427       62.5382072510       56.2825172534  MEMB      57              0.0000000000
      7604        63  POPC      O32            19.6217454996       63.2834398283       56.0619580875  MEMB      57              0.0000000000
      7605        63  POPC      C32            17.8059324186       61.8273008772       55.2392317368  MEMB      57              0.0000000000
      7606        63  POPC      H2X            16.7691271553       61.8100834912       55.6416120069  MEMB      57              0.0000000000
      7607        63  POPC      H2Y            18.1614176911       60.7835677715       55.1402608613  MEMB      57              0.0000000000
      7608        63  POPC      C23            18.7549364305       66.9561831343       55.8281737293  MEMB      57              0.0000000000
      7609        63  POPC      H3R            17.9552985305       66.2030769258       55.6421207441  MEMB      57              0.0000000000
      7610        63  POPC      H3S            19.6945080216       66.5564990752       55.3839505316  MEMB      57              0.0000000000
      7611        63  POPC      C24            18.3720050939       68.2728303843       55.1387705012  MEMB      57              0.0000000000
      7612        63  POPC      H4R            19.1631504993       69.0340179354       55.3207936031  MEMB      57              0.0000000000
      7613        63  POPC      H4S            17.4315403478       68.6561480962       55.5980957704  MEMB      57              0.0000000000
      7614        63  POPC      C25            18.1458647235       68.1378800436       53.6293008242  MEMB      57              0.0000000000
      7615        63  POPC      H5R            19.0883768797       67.8135476802       53.1379700938  MEMB      57              0.0000000000
      7616        63  POPC      H5S            17.8653706106       69.1430175146       53.2361007319  MEMB      57              0.0000000000
      7617        63  POPC      C26            17.0266821028       67.1407324124       53.3064194786  MEMB      57              0.0000000000
      7618        63  POPC      H6R            16.2329137704       67.2611098742       54.0809323170  MEMB      57              0.0000000000
      7619        63  POPC      H6S            17.4112310709       66.0990348078       53.3760816097  MEMB      57              0.0000000000
      7620        63  POPC      C27            16.3657305615       67.3678588630       51.9418685380  MEMB      57              0.0000000000
      7621        63  POPC      H7R            17.0254350582       66.9955643664       51.1269183400  MEMB      57              0.0000000000
      7622        63  POPC      H7S            16.2302294336       68.4645451658       51.7944815749  MEMB      57              0.0000000000
      7623        63  POPC      C28            14.9715388401       66.7179536333       51.8592456764  MEMB      57              0.0000000000
      7624        63  POPC      H8R            14.4981479504       67.0594515707       50.9120976126  MEMB      57              0.0000000000
      7625        63  POPC      H8S            14.3466221252       67.1212889113       52.6871790649  MEMB      57              0.0000000000
      7626        63  POPC      C29            15.0315480212       65.2146160064       51.9649951827  MEMB      57              0.0000000000
      7627        63  POPC      H91            15.3406682257       64.8300830020       52.9498807819  MEMB      57              0.0000000000
      7628        63  POPC      C210           14.7257133211       64.3429432292       50.9888368089  MEMB      57              0.0000000000
      7629        63  POPC      H101           14.7989268732       63.2635382927       51.1937095054  MEMB      57              0.0000000000
      7630        63  POPC      C211           14.2614026123       64.7096832672       49.6019027005  MEMB      57              0.0000000000
      7631        63  POPC      H11R           13.6613538280       65.6463986094       49.6095833746  MEMB      57              0.0000000000
      7632        63  POPC      H11S           13.6054769148       63.9181359021       49.1894238412  MEMB      57              0.0000000000
      7633        63  POPC      C212           15.3928056564       64.8644031095       48.5908276237  MEMB      57              0.0000000000
      7634        63  POPC      H12R           15.8588443036       63.8685533898       48.4238552669  MEMB      57              0.0000000000
      7635        63  POPC      H12S           16.1700752332       65.5536854126       48.9930468723  MEMB      57              0.0000000000
      7636        63  POPC      C213           14.8915710107       65.4115152057       47.2498356121  MEMB      57              0.0000000000
      7637        63  POPC      H13R           14.4185525315       66.4030775516       47.4276108668  MEMB      57              0.0000000000
      7638        63  POPC      H13S           14.1124621477       64.7407199055       46.8249669984  MEMB      57              0.0000000000
      7639        63  POPC      C214           16.0507148550       65.5544339598       46.2631245927  MEMB      57              0.0000000000
      7640        63  POPC      H14R           16.3934064363       64.5412128602       45.9558470354  MEMB      57              0.0000000000
      7641        63  POPC      H14S           16.8868772684       66.0614420535       46.7923228895  MEMB      57              0.0000000000
      7642        63  POPC      C215           15.7444186876       66.4025974929       45.0342116603  MEMB      57              0.0000000000
      7643        63  POPC      H15R           14.7253171869       66.1632720662       44.6578653397  MEMB      57              0.0000000000
      7644        63  POPC      H15S           16.4727199536       66.1565383804       44.2283538589  MEMB      57              0.0000000000
      7645        63  POPC      C216           15.8665660611       67.8951502549       45.3486100403  MEMB      57              0.0000000000
      7646        63  POPC      H16R           16.9174076914       68.1552544893       45.6110708151  MEMB      57              0.0000000000
      7647        63  POPC      H16S           15.2374557780       68.1316975360       46.2367669838  MEMB      57              0.0000000000
      7648        63  POPC      C217           15.3979972724       68.7477326331       44.1788391526  MEMB      57              0.0000000000
      7649        63  POPC      H17R           14.6813737996       68.1383715902       43.5855482122  MEMB      57              0.0000000000
      7650        63  POPC      H17S           16.2597877712       68.9784246064       43.5139030855  MEMB      57              0.0000000000
      7651        63  POPC      C218           14.6984129888       70.0255505100       44.6346720238  MEMB      57              0.0000000000
      7652        63  POPC      H18R           15.3763210105       70.6342032642       45.2670527724  MEMB      57              0.0000000000
      7653        63  POPC      H18S           13.7932593584       69.7861070256       45.2304300333  MEMB      57              0.0000000000
      7654        63  POPC      H18T           14.3910358903       70.6311539140       43.7606692589  MEMB      57              0.0000000000
      7655        63  POPC      C33            17.7919822625       62.5177827102       53.8550492420  MEMB      57              0.0000000000
      7656        63  POPC      H3X            17.8171878640       63.6228200639       53.9882146653  MEMB      57              0.0000000000
      7657        63  POPC      H3Y            16.8416116796       62.2723585995       53.3283243785  MEMB      57              0.0000000000
      7658        63  POPC      C34            18.9565464563       62.0661887187       52.9642855388  MEMB      57              0.0000000000
      7659        63  POPC      H4X            18.7297284010       61.0977289129       52.4704813958  MEMB      57              0.0000000000
      7660        63  POPC      H4Y            19.8379938616       61.9014575823       53.6308649365  MEMB      57              0.0000000000
      7661        63  POPC      C35            19.3854365531       63.1247461548       51.9397916320  MEMB      57              0.0000000000
      7662        63  POPC      H5X            20.4279185876       62.8877907541       51.6275157930  MEMB      57              0.0000000000
      7663        63  POPC      H5Y            19.3889942075       64.1140224705       52.4501969876  MEMB      57              0.0000000000
      7664        63  POPC      C36            18.5526954367       63.2351295450       50.6572418274  MEMB      57              0.0000000000
      7665        63  POPC      H6X            17.5036196234       63.5076900977       50.9052500807  MEMB      57              0.0000000000
      7666        63  POPC      H6Y            18.5424686570       62.2543770173       50.1354893326  MEMB      57              0.0000000000
      7667        63  POPC      C37            19.1471739053       64.3059273582       49.7254721049  MEMB      57              0.0000000000
      7668        63  POPC      H7X            20.2554653837       64.2496130930       49.7545494489  MEMB      57              0.0000000000
      7669        63  POPC      H7Y            18.8692353254       65.3048328202       50.1377685865  MEMB      57              0.0000000000
      7670        63  POPC      C38            18.6796453015       64.2227266635       48.2623560725  MEMB      57              0.0000000000
      7671        63  POPC      H8X            18.2372213810       65.2185182670       48.0444460835  MEMB      57              0.0000000000
      7672        63  POPC      H8Y            17.8871034061       63.4579306662       48.1386714208  MEMB      57              0.0000000000
      7673        63  POPC      C39            19.7903401594       63.9779740331       47.2265016205  MEMB      57              0.0000000000
      7674        63  POPC      H9X            20.0027162099       62.8958599386       47.1133280601  MEMB      57              0.0000000000
      7675        63  POPC      H9Y            20.7190932103       64.4538652922       47.6204840672  MEMB      57              0.0000000000
      7676        63  POPC      C310           19.4999549782       64.6386070868       45.8630362387  MEMB      57              0.0000000000
      7677        63  POPC      H10X           20.4218907200       65.1666988989       45.5446214339  MEMB      57              0.0000000000
      7678        63  POPC      H10Y           18.7296192523       65.4293299087       45.9596855726  MEMB      57              0.0000000000
      7679        63  POPC      C311           19.1435630232       63.7284130277       44.6901614627  MEMB      57              0.0000000000
      7680        63  POPC      H11X           18.1210632839       63.3124106076       44.8155550182  MEMB      57              0.0000000000
      7681        63  POPC      H11Y           19.8633637641       62.8808992403       44.6459439902  MEMB      57              0.0000000000
      7682        63  POPC      C312           19.2534524992       64.5311505056       43.3813944000  MEMB      57              0.0000000000
      7683        63  POPC      H12X           20.2910469020       64.9231545416       43.3184344732  MEMB      57              0.0000000000
      7684        63  POPC      H12Y           18.5777265608       65.4136111324       43.4058798271  MEMB      57              0.0000000000
      7685        63  POPC      C313           18.9572914355       63.6994848541       42.1366786618  MEMB      57              0.0000000000
      7686        63  POPC      H13X           19.4416654478       62.7040002045       42.2578895568  MEMB      57              0.0000000000
      7687        63  POPC      H13Y           19.4059424863       64.1816465726       41.2361614436  MEMB      57              0.0000000000
      7688        63  POPC      C314           17.4498211897       63.5449547966       41.9048258741  MEMB      57              0.0000000000
      7689        63  POPC      H14X           17.1010550456       64.3936665032       41.2738104696  MEMB      57              0.0000000000
      7690        63  POPC      H14Y           16.9090947567       63.6169624035       42.8764219696  MEMB      57              0.0000000000
      7691        63  POPC      C315           17.0810586330       62.2126258780       41.2468940193  MEMB      57              0.0000000000
      7692        63  POPC      H15X           16.0067632850       62.2409959504       40.9751733476  MEMB      57              0.0000000000
      7693        63  POPC      H15Y           17.2021345855       61.3949639062       41.9932609415  MEMB      57              0.0000000000
      7694        63  POPC      C316           17.8869172574       61.8847492814       39.9905379717  MEMB      57              0.0000000000
      7695        63  POPC      H16X           17.5626500077       60.9051255934       39.5798934791  MEMB      57              0.0000000000
      7696        63  POPC      H16Y           18.9702316816       61.8268590348       40.2144970293  MEMB      57              0.0000000000
      7697        63  POPC      H16Z           17.7368678986       62.6574116938       39.2079585817  MEMB      57              0.0000000000
      7698        64  POPC      N              67.1915364241       16.1528227347       61.4223445485  MEMB      58              0.0000000000
      7699        64  POPC      C12            65.8978448808       15.4507316928       61.0215447510  MEMB      58              0.0000000000
      7700        64  POPC      H12A           66.0757598551       14.3857391441       61.0862391534  MEMB      58              0.0000000000
      7701        64  POPC      H12B           65.6621860257       15.7031617765       59.9873436954  MEMB      58              0.0000000000
      7702        64  POPC      C13            67.4357368346       16.0283288110       62.8997744419  MEMB      58              0.0000000000
      7703        64  POPC      H13A           67.8531068334       15.0557920903       63.1611660168  MEMB      58              0.0000000000
      7704        64  POPC      H13B           68.1283085127       16.8031446970       63.2259398122  MEMB      58              0.0000000000
      7705        64  POPC      H13C           66.4879307804       16.1776772773       63.4142444827  MEMB      58              0.0000000000
      7706        64  POPC      C14            68.4106747440       15.6430162742       60.7128610665  MEMB      58              0.0000000000
      7707        64  POPC      H14A           68.6389705906       14.6295632939       61.0112939433  MEMB      58              0.0000000000
      7708        64  POPC      H14B           68.3248059221       15.7108540385       59.6383424369  MEMB      58              0.0000000000
      7709        64  POPC      H14C           69.2731848570       16.2678885006       60.9730110348  MEMB      58              0.0000000000
      7710        64  POPC      C15            67.0828509942       17.6126845626       61.1239799340  MEMB      58              0.0000000000
      7711        64  POPC      H15A           67.9530170380       18.1308221443       61.5306263157  MEMB      58              0.0000000000
      7712        64  POPC      H15B           66.1598311320       18.0017462243       61.5391406337  MEMB      58              0.0000000000
      7713        64  POPC      H15C           67.1225866750       17.8044639764       60.0622521686  MEMB      58              0.0000000000
      7714        64  POPC      C11            64.5918382897       15.7110383944       61.8518836688  MEMB      58              0.0000000000
      7715        64  POPC      H11A           64.7388377563       15.3508270175       62.8939174929  MEMB      58              0.0000000000
      7716        64  POPC      H11B           63.8083029343       15.0485798878       61.4048217119  MEMB      58              0.0000000000
      7717        64  POPC      P              62.6165516130       17.4107495937       62.0936896499  MEMB      58              0.0000000000
      7718        64  POPC      O13            62.4793507241       18.6968922997       62.8110792896  MEMB      58              0.0000000000
      7719        64  POPC      O14            61.9235232791       16.2391422251       62.7013074396  MEMB      58              0.0000000000
      7720        64  POPC      O12            64.1729483686       17.0851857755       61.8820560713  MEMB      58              0.0000000000
      7721        64  POPC      O11            62.2081673275       17.5921635381       60.5699540650  MEMB      58              0.0000000000
      7722        64  POPC      C1             61.6921301778       16.5272424816       59.7641539977  MEMB      58              0.0000000000
      7723        64  POPC      HA             60.7944072566       16.9054373501       59.2295953607  MEMB      58              0.0000000000
      7724        64  POPC      HB             61.3397031992       15.6609211427       60.3747722412  MEMB      58              0.0000000000
      7725        64  POPC      C2             62.6783464402       15.9521320025       58.6819621581  MEMB      58              0.0000000000
      7726        64  POPC      HS             63.3587078259       15.2821853641       59.2521749802  MEMB      58              0.0000000000
      7727        64  POPC      O21            63.4230646764       16.9766826399       57.9579713226  MEMB      58              0.0000000000
      7728        64  POPC      C21            64.6322002113       16.5728089722       57.5442404945  MEMB      58              0.0000000000
      7729        64  POPC      O22            65.1389629098       15.5036725542       57.8427479104  MEMB      58              0.0000000000
      7730        64  POPC      C22            65.3317710542       17.6593850963       56.7100028579  MEMB      58              0.0000000000
      7731        64  POPC      H2R            66.3935714223       17.3569181009       56.6075696305  MEMB      58              0.0000000000
      7732        64  POPC      H2S            65.2951350097       18.6075894114       57.2827740785  MEMB      58              0.0000000000
      7733        64  POPC      C3             61.8680952680       15.0841810947       57.6741831216  MEMB      58              0.0000000000
      7734        64  POPC      HX             61.3327808953       14.2912407656       58.2471694354  MEMB      58              0.0000000000
      7735        64  POPC      HY             62.5771890325       14.5595753665       56.9920183550  MEMB      58              0.0000000000
      7736        64  POPC      O31            60.8883264947       15.9128274181       57.0008572076  MEMB      58              0.0000000000
      7737        64  POPC      C31            60.9877298661       15.9999067050       55.6823678548  MEMB      58              0.0000000000
      7738        64  POPC      O32            61.7896898176       15.4001941864       54.9879084891  MEMB      58              0.0000000000
      7739        64  POPC      C32            59.9579251601       17.0122915463       55.1482823197  MEMB      58              0.0000000000
      7740        64  POPC      H2X            59.5527786129       17.5740995603       56.0049743823  MEMB      58              0.0000000000
      7741        64  POPC      H2Y            59.1000939278       16.4598645017       54.7475985173  MEMB      58              0.0000000000
      7742        64  POPC      C23            64.7287659765       17.8783396104       55.2994670059  MEMB      58              0.0000000000
      7743        64  POPC      H3R            63.6621576050       18.1842119952       55.4145993655  MEMB      58              0.0000000000
      7744        64  POPC      H3S            64.7371441540       16.9321699056       54.7170195911  MEMB      58              0.0000000000
      7745        64  POPC      C24            65.4536944352       18.9857307906       54.5053755484  MEMB      58              0.0000000000
      7746        64  POPC      H4R            65.5896625643       19.8635129945       55.1743448389  MEMB      58              0.0000000000
      7747        64  POPC      H4S            64.7891914657       19.3139197920       53.6776479882  MEMB      58              0.0000000000
      7748        64  POPC      C25            66.8177760815       18.6147823761       53.8830593271  MEMB      58              0.0000000000
      7749        64  POPC      H5R            67.5454586653       18.4111417312       54.7022795985  MEMB      58              0.0000000000
      7750        64  POPC      H5S            67.2001894940       19.4961611317       53.3172937030  MEMB      58              0.0000000000
      7751        64  POPC      C26            66.8165100370       17.4014656797       52.9312387930  MEMB      58              0.0000000000
      7752        64  POPC      H6R            66.5167861877       16.5030112055       53.5117997781  MEMB      58              0.0000000000
      7753        64  POPC      H6S            67.8568281421       17.2181485158       52.5825229778  MEMB      58              0.0000000000
      7754        64  POPC      C27            65.9274385472       17.5443542513       51.6817950262  MEMB      58              0.0000000000
      7755        64  POPC      H7R            66.5579135355       17.5259635563       50.7632746209  MEMB      58              0.0000000000
      7756        64  POPC      H7S            65.4324515075       18.5388111398       51.7039274182  MEMB      58              0.0000000000
      7757        64  POPC      C28            64.8344844289       16.4618090344       51.5699617559  MEMB      58              0.0000000000
      7758        64  POPC      H8R            64.1855271455       16.7295569443       50.7058329677  MEMB      58              0.0000000000
      7759        64  POPC      H8S            64.1804027298       16.5182601511       52.4687437486  MEMB      58              0.0000000000
      7760        64  POPC      C29            65.3942356874       15.0659149942       51.4304498335  MEMB      58              0.0000000000
      7761        64  POPC      H91            65.7218820408       14.6041933886       52.3748966104  MEMB      58              0.0000000000
      7762        64  POPC      C210           65.5042051989       14.3481049960       50.2999365346  MEMB      58              0.0000000000
      7763        64  POPC      H101           65.8754464141       13.3145738839       50.3709883077  MEMB      58              0.0000000000
      7764        64  POPC      C211           65.0944155074       14.7675342664       48.9106930042  MEMB      58              0.0000000000
      7765        64  POPC      H11R           65.9985957680       15.0080223499       48.3066767571  MEMB      58              0.0000000000
      7766        64  POPC      H11S           64.4592702279       15.6802436836       48.9030835289  MEMB      58              0.0000000000
      7767        64  POPC      C212           64.3343222266       13.6340746984       48.1973501276  MEMB      58              0.0000000000
      7768        64  POPC      H12R           65.0266583865       12.7709932240       48.0741037593  MEMB      58              0.0000000000
      7769        64  POPC      H12S           64.1064946399       13.9601533291       47.1631228393  MEMB      58              0.0000000000
      7770        64  POPC      C213           63.0474367267       13.1391291835       48.9057990799  MEMB      58              0.0000000000
      7771        64  POPC      H13R           63.3719723773       12.5669275196       49.8053945312  MEMB      58              0.0000000000
      7772        64  POPC      H13S           62.5112624128       12.4280519560       48.2394948801  MEMB      58              0.0000000000
      7773        64  POPC      C214           62.0469427910       14.1870806361       49.4289667996  MEMB      58              0.0000000000
      7774        64  POPC      H14R           62.5772714483       15.0230587680       49.9335657126  MEMB      58              0.0000000000
      7775        64  POPC      H14S           61.4328896549       13.6817861749       50.2112446110  MEMB      58              0.0000000000
      7776        64  POPC      C215           61.0650022365       14.7337591315       48.3850829350  MEMB      58              0.0000000000
      7777        64  POPC      H15R           60.3223875502       15.3832973983       48.9033127022  MEMB      58              0.0000000000
      7778        64  POPC      H15S           60.5121875469       13.8927474368       47.9100770309  MEMB      58              0.0000000000
      7779        64  POPC      C216           61.7773700953       15.5498269922       47.3129567359  MEMB      58              0.0000000000
      7780        64  POPC      H16R           62.4174535063       14.8749055954       46.7106043211  MEMB      58              0.0000000000
      7781        64  POPC      H16S           62.4401988059       16.2961327410       47.8003018663  MEMB      58              0.0000000000
      7782        64  POPC      C217           60.8489174451       16.2494493582       46.3319707476  MEMB      58              0.0000000000
      7783        64  POPC      H17R           60.2252013833       16.9984165236       46.8599226535  MEMB      58              0.0000000000
      7784        64  POPC      H17S           60.1565939611       15.5091545767       45.8915636570  MEMB      58              0.0000000000
      7785        64  POPC      C218           61.6440247891       16.9033326667       45.2096596033  MEMB      58              0.0000000000
      7786        64  POPC      H18R           61.8436261239       17.9662289506       45.4233292990  MEMB      58              0.0000000000
      7787        64  POPC      H18S           61.0901994323       16.8470757654       44.2503669254  MEMB      58              0.0000000000
      7788        64  POPC      H18T           62.6308387885       16.4125657807       45.0825847741  MEMB      58              0.0000000000
      7789        64  POPC      C33            60.4832785264       17.9855091214       54.0578459002  MEMB      58              0.0000000000
      7790        64  POPC      H3X            61.3705689791       18.5340712102       54.4408535598  MEMB      58              0.0000000000
      7791        64  POPC      H3Y            59.6851418505       18.7401486393       53.8637622091  MEMB      58              0.0000000000
      7792        64  POPC      C34            60.8016977027       17.3138030969       52.7053644912  MEMB      58              0.0000000000
      7793        64  POPC      H4X            59.9370294967       16.7055051150       52.3646822383  MEMB      58              0.0000000000
      7794        64  POPC      H4Y            61.6643611815       16.6220514089       52.8414290164  MEMB      58              0.0000000000
      7795        64  POPC      C35            61.1756382172       18.2943180250       51.5816813373  MEMB      58              0.0000000000
      7796        64  POPC      H5X            60.2730337464       18.8319095748       51.2172453086  MEMB      58              0.0000000000
      7797        64  POPC      H5Y            61.5840867661       17.7021513546       50.7291567244  MEMB      58              0.0000000000
      7798        64  POPC      C36            62.2243818902       19.3173988700       52.0242067294  MEMB      58              0.0000000000
      7799        64  POPC      H6X            62.9391540022       18.7971072091       52.7015737950  MEMB      58              0.0000000000
      7800        64  POPC      H6Y            61.7245721968       20.1211972304       52.6082129892  MEMB      58              0.0000000000
      7801        64  POPC      C37            63.0470860738       19.9369855136       50.8886644846  MEMB      58              0.0000000000
      7802        64  POPC      H7X            63.6578932526       19.1558268866       50.3949142534  MEMB      58              0.0000000000
      7803        64  POPC      H7Y            63.7841367662       20.6276553806       51.3593675756  MEMB      58              0.0000000000
      7804        64  POPC      C38            62.2350681060       20.7475916003       49.8666907277  MEMB      58              0.0000000000
      7805        64  POPC      H8X            62.9438847491       21.4196116657       49.3435509851  MEMB      58              0.0000000000
      7806        64  POPC      H8Y            61.4746199412       21.3748702864       50.3803122487  MEMB      58              0.0000000000
      7807        64  POPC      C39            61.5859659660       19.9609117348       48.7309216653  MEMB      58              0.0000000000
      7808        64  POPC      H9X            61.1941973293       20.6808703963       47.9806951582  MEMB      58              0.0000000000
      7809        64  POPC      H9Y            60.7188982390       19.3833289857       49.1139527549  MEMB      58              0.0000000000
      7810        64  POPC      C310           62.5415756395       19.0053847020       48.0215100612  MEMB      58              0.0000000000
      7811        64  POPC      H10X           61.9226589714       18.4558664065       47.2970995107  MEMB      58              0.0000000000
      7812        64  POPC      H10Y           62.9235753232       18.2440476454       48.7340799264  MEMB      58              0.0000000000
      7813        64  POPC      C311           63.7235193870       19.6490476333       47.2791258922  MEMB      58              0.0000000000
      7814        64  POPC      H11X           64.3114113168       20.2823959297       47.9796399742  MEMB      58              0.0000000000
      7815        64  POPC      H11Y           63.3518021480       20.3004811836       46.4579266695  MEMB      58              0.0000000000
      7816        64  POPC      C312           64.6355474561       18.5504618623       46.7184667628  MEMB      58              0.0000000000
      7817        64  POPC      H12X           64.0577111327       17.9007326635       46.0287509232  MEMB      58              0.0000000000
      7818        64  POPC      H12Y           64.9503891623       17.9155722508       47.5803737069  MEMB      58              0.0000000000
      7819        64  POPC      C313           65.8982860654       19.0346516172       45.9964356806  MEMB      58              0.0000000000
      7820        64  POPC      H13X           66.3049292632       19.9206552656       46.5355544058  MEMB      58              0.0000000000
      7821        64  POPC      H13Y           65.6468827916       19.3545522542       44.9618353567  MEMB      58              0.0000000000
      7822        64  POPC      C314           66.9818553615       17.9419297351       45.9830807812  MEMB      58              0.0000000000
      7823        64  POPC      H14X           67.1937795075       17.6809971010       47.0448664480  MEMB      58              0.0000000000
      7824        64  POPC      H14Y           67.9191972457       18.3497900595       45.5440165284  MEMB      58              0.0000000000
      7825        64  POPC      C315           66.6019486706       16.6440110251       45.2448685646  MEMB      58              0.0000000000
      7826        64  POPC      H15X           65.6417551992       16.2488756246       45.6458409917  MEMB      58              0.0000000000
      7827        64  POPC      H15Y           67.3807580999       15.8792513926       45.4644569089  MEMB      58              0.0000000000
      7828        64  POPC      C316           66.4995896198       16.7961103867       43.7278308048  MEMB      58              0.0000000000
      7829        64  POPC      H16X           67.4613833150       17.1722653452       43.3123857961  MEMB      58              0.0000000000
      7830        64  POPC      H16Y           65.6949279408       17.5186421220       43.4752082016  MEMB      58              0.0000000000
      7831        64  POPC      H16Z           66.2634683414       15.8263809840       43.2402541207  MEMB      58              0.0000000000
      7832        65  POPC      N              65.6253311393       49.4679136261       62.8683954556  MEMB      59              0.0000000000
      7833        65  POPC      C12            65.1597337361       48.7899904917       61.5731300666  MEMB      59              0.0000000000
      7834        65  POPC      H12A           65.2599547363       47.7048491886       61.6474640647  MEMB      59              0.0000000000
      7835        65  POPC      H12B           65.8449486036       49.0799214386       60.7803539618  MEMB      59              0.0000000000
      7836        65  POPC      C13            65.7686631268       50.9351977844       62.5980457587  MEMB      59              0.0000000000
      7837        65  POPC      H13A           65.9583952133       51.5158711312       63.4865065607  MEMB      59              0.0000000000
      7838        65  POPC      H13B           66.5051246412       51.1026076946       61.8239063128  MEMB      59              0.0000000000
      7839        65  POPC      H13C           64.8187205152       51.2909946592       62.1782319808  MEMB      59              0.0000000000
      7840        65  POPC      C14            64.6363910723       49.2618817130       63.9802632293  MEMB      59              0.0000000000
      7841        65  POPC      H14A           64.6262964244       48.2194098980       64.2752440518  MEMB      59              0.0000000000
      7842        65  POPC      H14B           64.8913715501       49.8499378501       64.8576317271  MEMB      59              0.0000000000
      7843        65  POPC      H14C           63.6535978407       49.5314162385       63.6152568122  MEMB      59              0.0000000000
      7844        65  POPC      C15            66.9283689934       48.8952091114       63.2906582278  MEMB      59              0.0000000000
      7845        65  POPC      H15A           67.2583163718       49.3219765989       64.2363822629  MEMB      59              0.0000000000
      7846        65  POPC      H15B           67.6905481197       49.0146658141       62.5312535985  MEMB      59              0.0000000000
      7847        65  POPC      H15C           66.8419342940       47.8176443341       63.4524969203  MEMB      59              0.0000000000
      7848        65  POPC      C11            63.7427650750       49.1354885114       61.0354720034  MEMB      59              0.0000000000
      7849        65  POPC      H11A           62.9677152951       48.6840054006       61.6934264726  MEMB      59              0.0000000000
      7850        65  POPC      H11B           63.6474575523       48.6412853275       60.0346159035  MEMB      59              0.0000000000
      7851        65  POPC      P              62.7572802178       51.2491349577       59.7782775265  MEMB      59              0.0000000000
      7852        65  POPC      O13            63.0315068044       52.7010513190       59.8104871082  MEMB      59              0.0000000000
      7853        65  POPC      O14            61.3466427388       50.8167563923       59.8678196959  MEMB      59              0.0000000000
      7854        65  POPC      O12            63.5516695822       50.5489057734       60.9633792720  MEMB      59              0.0000000000
      7855        65  POPC      O11            63.4407721826       50.6113719691       58.5135720881  MEMB      59              0.0000000000
      7856        65  POPC      C1             64.7662083298       51.0322623042       58.1542026771  MEMB      59              0.0000000000
      7857        65  POPC      HA             65.3338961737       50.1448052085       57.7956070928  MEMB      59              0.0000000000
      7858        65  POPC      HB             65.3424838159       51.4672368243       59.0053986277  MEMB      59              0.0000000000
      7859        65  POPC      C2             64.7197367370       52.0686152718       57.0055032161  MEMB      59              0.0000000000
      7860        65  POPC      HS             64.1075687102       52.9339791365       57.3621269551  MEMB      59              0.0000000000
      7861        65  POPC      O21            64.1525808330       51.3871893011       55.8746032113  MEMB      59              0.0000000000
      7862        65  POPC      C21            63.1384009465       51.9696432623       55.2993083526  MEMB      59              0.0000000000
      7863        65  POPC      O22            62.7715264013       53.1221976851       55.4560736419  MEMB      59              0.0000000000
      7864        65  POPC      C22            62.4571789927       50.9437079427       54.3854213546  MEMB      59              0.0000000000
      7865        65  POPC      H2R            61.4241110509       51.2898024742       54.1982285748  MEMB      59              0.0000000000
      7866        65  POPC      H2S            62.3990573883       49.9821093928       54.9375700041  MEMB      59              0.0000000000
      7867        65  POPC      C3             66.1347150750       52.5840715904       56.6397798154  MEMB      59              0.0000000000
      7868        65  POPC      HX             66.5786386558       53.0465759697       57.5511243308  MEMB      59              0.0000000000
      7869        65  POPC      HY             66.0513983228       53.4004244765       55.8838949875  MEMB      59              0.0000000000
      7870        65  POPC      O31            66.9560236635       51.4710711194       56.2153291477  MEMB      59              0.0000000000
      7871        65  POPC      C31            66.9651414456       51.2532387628       54.8992790706  MEMB      59              0.0000000000
      7872        65  POPC      O32            66.6272612412       52.0484528684       54.0419287559  MEMB      59              0.0000000000
      7873        65  POPC      C32            67.5482769863       49.8594987340       54.6277077338  MEMB      59              0.0000000000
      7874        65  POPC      H2X            67.8243892817       49.4213623720       55.6122268834  MEMB      59              0.0000000000
      7875        65  POPC      H2Y            68.4715474635       49.9844863862       54.0292271756  MEMB      59              0.0000000000
      7876        65  POPC      C23            63.2313956699       50.7345094970       53.0626326426  MEMB      59              0.0000000000
      7877        65  POPC      H3R            62.6618546691       50.0402931406       52.4057340252  MEMB      59              0.0000000000
      7878        65  POPC      H3S            64.1937637105       50.2420481074       53.3148801312  MEMB      59              0.0000000000
      7879        65  POPC      C24            63.5290845031       52.0287072340       52.2840947947  MEMB      59              0.0000000000
      7880        65  POPC      H4R            64.0924224154       51.7731487874       51.3586199859  MEMB      59              0.0000000000
      7881        65  POPC      H4S            64.2036347253       52.6764122412       52.8887261217  MEMB      59              0.0000000000
      7882        65  POPC      C25            62.2648366986       52.8162569182       51.9100911321  MEMB      59              0.0000000000
      7883        65  POPC      H5R            61.5918478213       52.8547222189       52.7926623580  MEMB      59              0.0000000000
      7884        65  POPC      H5S            61.7166196448       52.2732292292       51.1143662318  MEMB      59              0.0000000000
      7885        65  POPC      C26            62.5013550517       54.2905283460       51.5210800570  MEMB      59              0.0000000000
      7886        65  POPC      H6R            62.8095756514       54.7978337305       52.4649922716  MEMB      59              0.0000000000
      7887        65  POPC      H6S            61.5417812782       54.7515741058       51.2225432169  MEMB      59              0.0000000000
      7888        65  POPC      C27            63.5740417790       54.6024286947       50.4544017495  MEMB      59              0.0000000000
      7889        65  POPC      H7R            64.5304682449       54.1128605720       50.7383644492  MEMB      59              0.0000000000
      7890        65  POPC      H7S            63.7493754608       55.7000105368       50.4804399541  MEMB      59              0.0000000000
      7891        65  POPC      C28            63.2314783281       54.3009113691       48.9853252499  MEMB      59              0.0000000000
      7892        65  POPC      H8R            64.0614518151       54.6880541656       48.3529818374  MEMB      59              0.0000000000
      7893        65  POPC      H8S            62.3533230833       54.8774724479       48.6531536089  MEMB      59              0.0000000000
      7894        65  POPC      C29            63.0408714091       52.8279450601       48.7936955789  MEMB      59              0.0000000000
      7895        65  POPC      H91            62.0221571417       52.4345288049       48.9380918361  MEMB      59              0.0000000000
      7896        65  POPC      C210           64.0411478296       51.9945863140       48.4965193207  MEMB      59              0.0000000000
      7897        65  POPC      H101           63.8298739250       50.9186150548       48.4604198039  MEMB      59              0.0000000000
      7898        65  POPC      C211           65.4851088936       52.3931396581       48.3044561509  MEMB      59              0.0000000000
      7899        65  POPC      H11R           66.1336646933       51.7151328130       48.8922853294  MEMB      59              0.0000000000
      7900        65  POPC      H11S           65.7197863429       53.4118277436       48.6856126676  MEMB      59              0.0000000000
      7901        65  POPC      C212           65.8537545637       52.3125509240       46.8107735107  MEMB      59              0.0000000000
      7902        65  POPC      H12R           65.4456309908       53.1912897386       46.2661750408  MEMB      59              0.0000000000
      7903        65  POPC      H12S           65.3683011537       51.4085841567       46.3753174665  MEMB      59              0.0000000000
      7904        65  POPC      C213           67.3654760491       52.1854003048       46.5676591127  MEMB      59              0.0000000000
      7905        65  POPC      H13R           67.7980607462       51.7095661651       47.4806941278  MEMB      59              0.0000000000
      7906        65  POPC      H13S           67.8456024795       53.1810859670       46.4657810586  MEMB      59              0.0000000000
      7907        65  POPC      C214           67.7112971820       51.2598301869       45.3847120563  MEMB      59              0.0000000000
      7908        65  POPC      H14R           66.9504675876       50.4574774748       45.3084111914  MEMB      59              0.0000000000
      7909        65  POPC      H14S           68.6705144438       50.7521494826       45.6219089145  MEMB      59              0.0000000000
      7910        65  POPC      C215           67.8706734700       51.9414527578       44.0154233382  MEMB      59              0.0000000000
      7911        65  POPC      H15R           68.7172618125       52.6591679119       44.0841861303  MEMB      59              0.0000000000
      7912        65  POPC      H15S           66.9604793801       52.5216754313       43.7645330299  MEMB      59              0.0000000000
      7913        65  POPC      C216           68.1741369512       50.9174917087       42.9020772715  MEMB      59              0.0000000000
      7914        65  POPC      H16R           68.9540716886       50.2365916371       43.3193120058  MEMB      59              0.0000000000
      7915        65  POPC      H16S           67.2820868482       50.2938604148       42.6945841251  MEMB      59              0.0000000000
      7916        65  POPC      C217           68.7724740180       51.5295775328       41.6173098905  MEMB      59              0.0000000000
      7917        65  POPC      H17R           69.6350659063       50.8935856282       41.3102452291  MEMB      59              0.0000000000
      7918        65  POPC      H17S           69.1834117619       52.5179446254       41.8973279477  MEMB      59              0.0000000000
      7919        65  POPC      C218           67.8778094092       51.7200450344       40.3857537257  MEMB      59              0.0000000000
      7920        65  POPC      H18R           68.4607831080       52.1899856736       39.5630026714  MEMB      59              0.0000000000
      7921        65  POPC      H18S           67.0147295629       52.3825371528       40.6071606870  MEMB      59              0.0000000000
      7922        65  POPC      H18T           67.4997470129       50.7482537091       40.0058186073  MEMB      59              0.0000000000
      7923        65  POPC      C33            66.5827370269       48.8688955990       53.9185899963  MEMB      59              0.0000000000
      7924        65  POPC      H3X            65.5750806103       48.8946443579       54.3898339282  MEMB      59              0.0000000000
      7925        65  POPC      H3Y            66.9860153983       47.8442767997       54.0987690971  MEMB      59              0.0000000000
      7926        65  POPC      C34            66.4914946543       49.0441523362       52.3913660067  MEMB      59              0.0000000000
      7927        65  POPC      H4X            67.5017400529       49.3008962007       52.0057200302  MEMB      59              0.0000000000
      7928        65  POPC      H4Y            65.8289636933       49.8978580974       52.1362846807  MEMB      59              0.0000000000
      7929        65  POPC      C35            66.0148139761       47.7646612737       51.6729892591  MEMB      59              0.0000000000
      7930        65  POPC      H5X            65.1355702158       47.3398746433       52.2088142352  MEMB      59              0.0000000000
      7931        65  POPC      H5Y            66.8335969424       47.0117015809       51.7327203245  MEMB      59              0.0000000000
      7932        65  POPC      C36            65.6209097763       47.9538542839       50.1954164578  MEMB      59              0.0000000000
      7933        65  POPC      H6X            64.6169326432       48.4311471994       50.1404486579  MEMB      59              0.0000000000
      7934        65  POPC      H6Y            65.5369492167       46.9463350844       49.7281417803  MEMB      59              0.0000000000
      7935        65  POPC      C37            66.5995772616       48.8170235939       49.3840365299  MEMB      59              0.0000000000
      7936        65  POPC      H7X            67.6437072727       48.5658871913       49.6809887373  MEMB      59              0.0000000000
      7937        65  POPC      H7Y            66.4295630814       49.8748097449       49.6681102985  MEMB      59              0.0000000000
      7938        65  POPC      C38            66.5043663374       48.6526177835       47.8538656442  MEMB      59              0.0000000000
      7939        65  POPC      H8X            67.0207336731       47.7146721438       47.5750488523  MEMB      59              0.0000000000
      7940        65  POPC      H8Y            67.0530712104       49.4837497778       47.3651411053  MEMB      59              0.0000000000
      7941        65  POPC      C39            65.1014297850       48.5048134131       47.2529563431  MEMB      59              0.0000000000
      7942        65  POPC      H9X            64.5094102905       49.4232328779       47.4096113619  MEMB      59              0.0000000000
      7943        65  POPC      H9Y            64.5815547088       47.6643793894       47.7625387851  MEMB      59              0.0000000000
      7944        65  POPC      C310           65.1473636737       48.1817390203       45.7508240188  MEMB      59              0.0000000000
      7945        65  POPC      H10X           65.9839176511       47.4756888142       45.5529341606  MEMB      59              0.0000000000
      7946        65  POPC      H10Y           65.3531046666       49.1106547725       45.1737597486  MEMB      59              0.0000000000
      7947        65  POPC      C311           63.8419922408       47.5647528666       45.2325451950  MEMB      59              0.0000000000
      7948        65  POPC      H11X           63.5836230403       46.6567288208       45.8198998876  MEMB      59              0.0000000000
      7949        65  POPC      H11Y           64.0098657726       47.2424875172       44.1825484432  MEMB      59              0.0000000000
      7950        65  POPC      C312           62.6856539248       48.5686272833       45.2708021373  MEMB      59              0.0000000000
      7951        65  POPC      H12X           63.0623652793       49.5510379691       44.9012570559  MEMB      59              0.0000000000
      7952        65  POPC      H12Y           62.3536912858       48.7168837861       46.3211418738  MEMB      59              0.0000000000
      7953        65  POPC      C313           61.4825627643       48.1776328756       44.4033785668  MEMB      59              0.0000000000
      7954        65  POPC      H13X           60.7563161192       49.0178789481       44.4826526347  MEMB      59              0.0000000000
      7955        65  POPC      H13Y           61.0041987902       47.2425445806       44.7636661368  MEMB      59              0.0000000000
      7956        65  POPC      C314           61.8171885114       48.0639687469       42.9216564252  MEMB      59              0.0000000000
      7957        65  POPC      H14X           62.1787334814       47.0532435123       42.6633353428  MEMB      59              0.0000000000
      7958        65  POPC      H14Y           62.6687149403       48.7560881156       42.7928941431  MEMB      59              0.0000000000
      7959        65  POPC      C315           60.6743292588       48.4821224957       41.9852773129  MEMB      59              0.0000000000
      7960        65  POPC      H15X           60.9656951344       48.2309489382       40.9422451609  MEMB      59              0.0000000000
      7961        65  POPC      H15Y           60.5876960179       49.5879028748       42.0365747646  MEMB      59              0.0000000000
      7962        65  POPC      C316           59.3000404400       47.8858181509       42.3110882937  MEMB      59              0.0000000000
      7963        65  POPC      H16X           58.9572407734       48.2243818425       43.3102050298  MEMB      59              0.0000000000
      7964        65  POPC      H16Y           59.3264673282       46.7780558635       42.3109601842  MEMB      59              0.0000000000
      7965        65  POPC      H16Z           58.5489486419       48.2224485941       41.5654445624  MEMB      59              0.0000000000
      7966        66  POPC      N               2.2282500251       10.0807255609       60.6612567610  MEMB      60              0.0000000000
      7967        66  POPC      C12             3.1103260355        9.4948841546       61.7626877899  MEMB      60              0.0000000000
      7968        66  POPC      H12A            3.8261876900        8.8250339500       61.2947914685  MEMB      60              0.0000000000
      7969        66  POPC      H12B            2.5028552129        8.9394848485       62.4597727344  MEMB      60              0.0000000000
      7970        66  POPC      C13             3.1075143630       10.8547031377       59.7285112669  MEMB      60              0.0000000000
      7971        66  POPC      H13A            3.7777952667       10.2323587423       59.1424429743  MEMB      60              0.0000000000
      7972        66  POPC      H13B            2.5502678830       11.4968177321       59.0711304601  MEMB      60              0.0000000000
      7973        66  POPC      H13C            3.7800224346       11.4861648582       60.3225606936  MEMB      60              0.0000000000
      7974        66  POPC      C14             1.5518430769        9.0164071283       59.8691294072  MEMB      60              0.0000000000
      7975        66  POPC      H14A            1.0040419640        9.4617435734       59.0446906133  MEMB      60              0.0000000000
      7976        66  POPC      H14B            2.2652556945        8.3256293359       59.4287306187  MEMB      60              0.0000000000
      7977        66  POPC      H14C            0.8733470054        8.4458478014       60.4782093982  MEMB      60              0.0000000000
      7978        66  POPC      C15             1.2263380064       11.0553603825       61.2048944732  MEMB      60              0.0000000000
      7979        66  POPC      H15A            0.5035559025       10.6064827553       61.8723337645  MEMB      60              0.0000000000
      7980        66  POPC      H15B            0.6998154091       11.5706844521       60.4089554032  MEMB      60              0.0000000000
      7981        66  POPC      H15C            1.7483070909       11.8074851968       61.8056646693  MEMB      60              0.0000000000
      7982        66  POPC      C11             3.9824909770       10.4571189576       62.6082355129  MEMB      60              0.0000000000
      7983        66  POPC      H11A            4.4989192166        9.8382807145       63.3884972960  MEMB      60              0.0000000000
      7984        66  POPC      H11B            3.3447493213       11.1635504715       63.1683052121  MEMB      60              0.0000000000
      7985        66  POPC      P               6.3921395257       11.3405994884       62.2196115354  MEMB      60              0.0000000000
      7986        66  POPC      O13             6.9230260298       10.0175608454       62.6328420556  MEMB      60              0.0000000000
      7987        66  POPC      O14             6.4605773682       12.4387181646       63.2097296867  MEMB      60              0.0000000000
      7988        66  POPC      O12             4.8841745153       11.1861777009       61.7743783240  MEMB      60              0.0000000000
      7989        66  POPC      O11             7.1167093062       11.8487277820       60.9188400131  MEMB      60              0.0000000000
      7990        66  POPC      C1              6.5947763621       12.9630405542       60.1738277590  MEMB      60              0.0000000000
      7991        66  POPC      HA              7.2693717458       13.8403089175       60.3096411130  MEMB      60              0.0000000000
      7992        66  POPC      HB              5.5755866146       13.2843019040       60.4954955121  MEMB      60              0.0000000000
      7993        66  POPC      C2              6.5713109953       12.6086359126       58.6631995239  MEMB      60              0.0000000000
      7994        66  POPC      HS              7.0535304693       13.4329125886       58.0917053589  MEMB      60              0.0000000000
      7995        66  POPC      O21             5.2342893151       12.3669148398       58.1875318663  MEMB      60              0.0000000000
      7996        66  POPC      C21             4.5223745274       13.4406337515       57.9028219100  MEMB      60              0.0000000000
      7997        66  POPC      O22             4.8343587614       14.5876327155       58.1566111448  MEMB      60              0.0000000000
      7998        66  POPC      C22             3.2365974357       13.0041375165       57.1996838116  MEMB      60              0.0000000000
      7999        66  POPC      H2R             2.3860982566       13.3759958103       57.8046627093  MEMB      60              0.0000000000
      8000        66  POPC      H2S             3.1970920798       11.8946741090       57.1420067612  MEMB      60              0.0000000000
      8001        66  POPC      C3              7.4102016706       11.3186639108       58.4384597412  MEMB      60              0.0000000000
      8002        66  POPC      HX              6.8607380949       10.4781849904       58.9211817848  MEMB      60              0.0000000000
      8003        66  POPC      HY              8.3673143411       11.4479484274       58.9920022780  MEMB      60              0.0000000000
      8004        66  POPC      O31             7.7489462443       11.0448734128       57.0648811012  MEMB      60              0.0000000000
      8005        66  POPC      C31             6.8400156051       10.3886933067       56.3481996712  MEMB      60              0.0000000000
      8006        66  POPC      O32             5.7477084517       10.0315041000       56.7531360586  MEMB      60              0.0000000000
      8007        66  POPC      C32             7.3956259776       10.1166996294       54.9548829992  MEMB      60              0.0000000000
      8008        66  POPC      H2X             8.5041395126       10.1661291814       54.9851755308  MEMB      60              0.0000000000
      8009        66  POPC      H2Y             7.0242105341       10.9332270910       54.3048354939  MEMB      60              0.0000000000
      8010        66  POPC      C23             3.1719971308       13.5689936560       55.7732663385  MEMB      60              0.0000000000
      8011        66  POPC      H3R             3.3607662083       14.6655832631       55.7815840308  MEMB      60              0.0000000000
      8012        66  POPC      H3S             2.1471313183       13.4145918257       55.3610672985  MEMB      60              0.0000000000
      8013        66  POPC      C24             4.1608637420       12.8612233763       54.8344943646  MEMB      60              0.0000000000
      8014        66  POPC      H4R             3.9335875740       11.7705271822       54.8280011982  MEMB      60              0.0000000000
      8015        66  POPC      H4S             5.2040529472       12.9741549222       55.2031387746  MEMB      60              0.0000000000
      8016        66  POPC      C25             4.0700946089       13.3965014725       53.4011923924  MEMB      60              0.0000000000
      8017        66  POPC      H5R             2.9948802861       13.4819226133       53.1243846654  MEMB      60              0.0000000000
      8018        66  POPC      H5S             4.5250789645       12.6683795476       52.6955506069  MEMB      60              0.0000000000
      8019        66  POPC      C26             4.7412698161       14.7668298614       53.2337606278  MEMB      60              0.0000000000
      8020        66  POPC      H6R             4.4136884605       15.4408960240       54.0538893705  MEMB      60              0.0000000000
      8021        66  POPC      H6S             4.3785987910       15.2157573574       52.2834173384  MEMB      60              0.0000000000
      8022        66  POPC      C27             6.2811587040       14.7275063606       53.2161247242  MEMB      60              0.0000000000
      8023        66  POPC      H7R             6.6508459695       14.3295810104       54.1871285888  MEMB      60              0.0000000000
      8024        66  POPC      H7S             6.6570950481       15.7693495625       53.1342735458  MEMB      60              0.0000000000
      8025        66  POPC      C28             6.8823461549       13.8791808990       52.0822428877  MEMB      60              0.0000000000
      8026        66  POPC      H8R             6.6915260128       12.8163950915       52.3438531315  MEMB      60              0.0000000000
      8027        66  POPC      H8S             7.9857308771       13.9910225493       52.0671434070  MEMB      60              0.0000000000
      8028        66  POPC      C29             6.3219837540       14.2754164002       50.7397264384  MEMB      60              0.0000000000
      8029        66  POPC      H91             6.3684440150       15.3504423375       50.5097868352  MEMB      60              0.0000000000
      8030        66  POPC      C210            5.7980552354       13.4402760299       49.8332611287  MEMB      60              0.0000000000
      8031        66  POPC      H101            5.4129676607       13.8400254704       48.8831378448  MEMB      60              0.0000000000
      8032        66  POPC      C211            5.6829776980       11.9510365823       49.9999221241  MEMB      60              0.0000000000
      8033        66  POPC      H11R            4.6298798354       11.6901627630       50.1821213650  MEMB      60              0.0000000000
      8034        66  POPC      H11S            6.2640358699       11.5665846917       50.8619839637  MEMB      60              0.0000000000
      8035        66  POPC      C212            6.1800952858       11.1826774647       48.7759532489  MEMB      60              0.0000000000
      8036        66  POPC      H12R            5.7181836699       11.6079723109       47.8552584869  MEMB      60              0.0000000000
      8037        66  POPC      H12S            5.8524655776       10.1205213916       48.8458795305  MEMB      60              0.0000000000
      8038        66  POPC      C213            7.7034301863       11.2354658107       48.6675045769  MEMB      60              0.0000000000
      8039        66  POPC      H13R            8.1591257345       10.3950077163       49.2339675151  MEMB      60              0.0000000000
      8040        66  POPC      H13S            8.0712550674       12.1810241899       49.1300115000  MEMB      60              0.0000000000
      8041        66  POPC      C214            8.1514698037       11.2303621109       47.2107510866  MEMB      60              0.0000000000
      8042        66  POPC      H14R            9.2295488630       11.4798752838       47.1909377537  MEMB      60              0.0000000000
      8043        66  POPC      H14S            7.5997880649       12.0347194930       46.6713698466  MEMB      60              0.0000000000
      8044        66  POPC      C215            7.9265071485        9.8884262485       46.5098488470  MEMB      60              0.0000000000
      8045        66  POPC      H15R            6.9569688517        9.4491247716       46.8356079742  MEMB      60              0.0000000000
      8046        66  POPC      H15S            8.7262880982        9.1899001999       46.8326904620  MEMB      60              0.0000000000
      8047        66  POPC      C216            7.9164705764       10.0110496033       44.9804504032  MEMB      60              0.0000000000
      8048        66  POPC      H16R            8.0391414096       11.0715683249       44.6681290978  MEMB      60              0.0000000000
      8049        66  POPC      H16S            6.9446031587        9.6539768114       44.6001556532  MEMB      60              0.0000000000
      8050        66  POPC      C217            8.9663209435        9.1467022787       44.2957300441  MEMB      60              0.0000000000
      8051        66  POPC      H17R            8.8600572451        8.0997673808       44.6587943016  MEMB      60              0.0000000000
      8052        66  POPC      H17S            9.9610414451        9.5333496610       44.5975699633  MEMB      60              0.0000000000
      8053        66  POPC      C218            8.8610741037        9.1489109098       42.7736839286  MEMB      60              0.0000000000
      8054        66  POPC      H18R            7.8339140584        8.8908431547       42.4408665581  MEMB      60              0.0000000000
      8055        66  POPC      H18S            9.5696636773        8.4142106493       42.3347821294  MEMB      60              0.0000000000
      8056        66  POPC      H18T            9.1172810157       10.1540768598       42.3826565545  MEMB      60              0.0000000000
      8057        66  POPC      C33             6.9724086525        8.7305935432       54.4129798892  MEMB      60              0.0000000000
      8058        66  POPC      H3X             6.0425083718        8.3657853439       54.9036370941  MEMB      60              0.0000000000
      8059        66  POPC      H3Y             7.7710714755        7.9926487796       54.6564615259  MEMB      60              0.0000000000
      8060        66  POPC      C34             6.7371381737        8.7285689481       52.8987225920  MEMB      60              0.0000000000
      8061        66  POPC      H4X             6.6193786460        7.6814824323       52.5527833479  MEMB      60              0.0000000000
      8062        66  POPC      H4Y             7.6349688848        9.1571370524       52.3979721951  MEMB      60              0.0000000000
      8063        66  POPC      C35             5.4917255265        9.5016374264       52.4455654819  MEMB      60              0.0000000000
      8064        66  POPC      H5X             5.5235991171        9.5508910694       51.3355087719  MEMB      60              0.0000000000
      8065        66  POPC      H5Y             5.5390220868       10.5441331144       52.8282020807  MEMB      60              0.0000000000
      8066        66  POPC      C36             4.1441524539        8.8898119409       52.8640414230  MEMB      60              0.0000000000
      8067        66  POPC      H6X             4.1398177596        8.7341148915       53.9663481344  MEMB      60              0.0000000000
      8068        66  POPC      H6Y             4.0050724747        7.8995766089       52.3771790038  MEMB      60              0.0000000000
      8069        66  POPC      C37             2.9662377742        9.8176815866       52.5190083262  MEMB      60              0.0000000000
      8070        66  POPC      H7X             3.1783857727       10.8206939389       52.9449119705  MEMB      60              0.0000000000
      8071        66  POPC      H7Y             2.0379516328        9.4426111916       53.0059407287  MEMB      60              0.0000000000
      8072        66  POPC      C38             2.7088555717        9.9658233182       51.0137570147  MEMB      60              0.0000000000
      8073        66  POPC      H8X             2.0672839011        9.1201171409       50.7084676343  MEMB      60              0.0000000000
      8074        66  POPC      H8Y             3.6546963271        9.8580220954       50.4458772565  MEMB      60              0.0000000000
      8075        66  POPC      C39             2.0590602114       11.3075645740       50.6389387126  MEMB      60              0.0000000000
      8076        66  POPC      H9X             2.7676613635       12.1388527181       50.8431962707  MEMB      60              0.0000000000
      8077        66  POPC      H9Y             1.1816950382       11.4741185976       51.3038786698  MEMB      60              0.0000000000
      8078        66  POPC      C310            1.5795534402       11.4143800931       49.1800837222  MEMB      60              0.0000000000
      8079        66  POPC      H10X            1.3007808837       12.4774171517       48.9979864106  MEMB      60              0.0000000000
      8080        66  POPC      H10Y            0.6526746924       10.8317950087       49.0945606204  MEMB      60              0.0000000000
      8081        66  POPC      C311            2.5530437588       10.9990788690       48.0580034770  MEMB      60              0.0000000000
      8082        66  POPC      H11X            3.5726342931       11.3357954714       48.3157036003  MEMB      60              0.0000000000
      8083        66  POPC      H11Y            2.2445110948       11.5728725979       47.1550431554  MEMB      60              0.0000000000
      8084        66  POPC      C312            2.5777947908        9.5055017565       47.6639546028  MEMB      60              0.0000000000
      8085        66  POPC      H12X            1.5688430158        9.1732582967       47.3380620978  MEMB      60              0.0000000000
      8086        66  POPC      H12Y            2.8703213799        8.8873658180       48.5380594995  MEMB      60              0.0000000000
      8087        66  POPC      C313            3.5450865570        9.2015707607       46.5093847571  MEMB      60              0.0000000000
      8088        66  POPC      H13X            3.6510769474        8.0993144629       46.3898809640  MEMB      60              0.0000000000
      8089        66  POPC      H13Y            4.5486884266        9.6095989982       46.7634066947  MEMB      60              0.0000000000
      8090        66  POPC      C314            3.0641037275        9.8028056359       45.1807200746  MEMB      60              0.0000000000
      8091        66  POPC      H14X            2.9039271891       10.8926084231       45.3160543184  MEMB      60              0.0000000000
      8092        66  POPC      H14Y            2.0861472753        9.3708004210       44.9064982196  MEMB      60              0.0000000000
      8093        66  POPC      C315            4.0811488290        9.6320397316       44.0537633990  MEMB      60              0.0000000000
      8094        66  POPC      H15X            4.0087359959        8.6214563035       43.5941401642  MEMB      60              0.0000000000
      8095        66  POPC      H15Y            5.0620776715        9.6965705203       44.5544500926  MEMB      60              0.0000000000
      8096        66  POPC      C316            4.0224007925       10.7361093960       42.9969843262  MEMB      60              0.0000000000
      8097        66  POPC      H16X            3.0928282426       10.6580975220       42.3961611138  MEMB      60              0.0000000000
      8098        66  POPC      H16Y            4.8946228903       10.6717529777       42.3124047110  MEMB      60              0.0000000000
      8099        66  POPC      H16Z            4.0503639686       11.7337056819       43.4855870146  MEMB      60              0.0000000000
      8100        67  POPC      N              63.9117555256        7.3517096269       61.1965375908  MEMB      61              0.0000000000
      8101        67  POPC      C12            62.5317741672        7.7409935109       60.6857431040  MEMB      61              0.0000000000
      8102        67  POPC      H12A           61.8968250476        6.8468944309       60.6290226297  MEMB      61              0.0000000000
      8103        67  POPC      H12B           62.5618150316        8.1048794974       59.6668212179  MEMB      61              0.0000000000
      8104        67  POPC      C13            64.6490563226        8.5999505211       61.5131558302  MEMB      61              0.0000000000
      8105        67  POPC      H13A           64.1240575947        9.0713942121       62.3503557579  MEMB      61              0.0000000000
      8106        67  POPC      H13B           65.6602777681        8.4172855221       61.8204727288  MEMB      61              0.0000000000
      8107        67  POPC      H13C           64.6048471769        9.3049236476       60.6923914377  MEMB      61              0.0000000000
      8108        67  POPC      C14            63.7403532445        6.5919920447       62.4742588871  MEMB      61              0.0000000000
      8109        67  POPC      H14A           64.6534991087        6.4828646878       63.0317258620  MEMB      61              0.0000000000
      8110        67  POPC      H14B           63.0034344524        7.1074621343       63.0950952671  MEMB      61              0.0000000000
      8111        67  POPC      H14C           63.3290701844        5.5898537243       62.3089355484  MEMB      61              0.0000000000
      8112        67  POPC      C15            64.6081049683        6.4639039821       60.2139827734  MEMB      61              0.0000000000
      8113        67  POPC      H15A           64.0820177305        5.5075273103       60.1657542155  MEMB      61              0.0000000000
      8114        67  POPC      H15B           65.6130853167        6.2460168358       60.5443440445  MEMB      61              0.0000000000
      8115        67  POPC      H15C           64.6266766476        6.8954667079       59.2191264528  MEMB      61              0.0000000000
      8116        67  POPC      C11            61.7184539445        8.7743219432       61.5085388338  MEMB      61              0.0000000000
      8117        67  POPC      H11A           60.8840723497        9.1830771208       60.8917847158  MEMB      61              0.0000000000
      8118        67  POPC      H11B           62.3436998484        9.6530584312       61.7529843814  MEMB      61              0.0000000000
      8119        67  POPC      P              60.1493243677        7.0082782474       62.6849071727  MEMB      61              0.0000000000
      8120        67  POPC      O13            58.8421760643        7.5478773175       63.1026392519  MEMB      61              0.0000000000
      8121        67  POPC      O14            60.7601466619        5.9192463711       63.4681384351  MEMB      61              0.0000000000
      8122        67  POPC      O12            61.2219190576        8.1998416267       62.7081705513  MEMB      61              0.0000000000
      8123        67  POPC      O11            60.1532189065        6.5976495362       61.1443561981  MEMB      61              0.0000000000
      8124        67  POPC      C1             59.2563762084        7.1431905241       60.1710295163  MEMB      61              0.0000000000
      8125        67  POPC      HA             59.0887259612        8.2268686364       60.3598625528  MEMB      61              0.0000000000
      8126        67  POPC      HB             58.2615814795        6.6438677421       60.2754681191  MEMB      61              0.0000000000
      8127        67  POPC      C2             59.6919259443        6.9701556701       58.6480667384  MEMB      61              0.0000000000
      8128        67  POPC      HS             59.4527526634        5.9137965115       58.3833287005  MEMB      61              0.0000000000
      8129        67  POPC      O21            61.0991136260        7.2551724878       58.3739740929  MEMB      61              0.0000000000
      8130        67  POPC      C21            61.5584336756        6.7167891637       57.2263754995  MEMB      61              0.0000000000
      8131        67  POPC      O22            60.9611554632        5.9375733261       56.5133677166  MEMB      61              0.0000000000
      8132        67  POPC      C22            62.9518657841        7.2870636099       56.9465814623  MEMB      61              0.0000000000
      8133        67  POPC      H2R            63.5292942743        7.2464257424       57.8815005096  MEMB      61              0.0000000000
      8134        67  POPC      H2S            62.8405685410        8.3496487791       56.6491558346  MEMB      61              0.0000000000
      8135        67  POPC      C3             58.7680451629        7.9163719046       57.7997812828  MEMB      61              0.0000000000
      8136        67  POPC      HX             58.6112577575        8.8599505954       58.3734352152  MEMB      61              0.0000000000
      8137        67  POPC      HY             57.7725221690        7.4230051164       57.7654273672  MEMB      61              0.0000000000
      8138        67  POPC      O31            59.2043856011        8.1799284723       56.4415001775  MEMB      61              0.0000000000
      8139        67  POPC      C31            59.9300579792        9.2768128302       56.2853187265  MEMB      61              0.0000000000
      8140        67  POPC      O32            60.3809386530        9.9804241121       57.1696676793  MEMB      61              0.0000000000
      8141        67  POPC      C32            60.0520876496        9.6036505690       54.8073801386  MEMB      61              0.0000000000
      8142        67  POPC      H2X            60.5703577357       10.5795231331       54.7119303897  MEMB      61              0.0000000000
      8143        67  POPC      H2Y            59.0199793882        9.7347275961       54.4240443966  MEMB      61              0.0000000000
      8144        67  POPC      C23            63.6908939665        6.4912492209       55.8477123128  MEMB      61              0.0000000000
      8145        67  POPC      H3R            63.1400121839        6.5946445662       54.8855836061  MEMB      61              0.0000000000
      8146        67  POPC      H3S            63.6918401194        5.4047555337       56.1022126060  MEMB      61              0.0000000000
      8147        67  POPC      C24            65.1507863241        6.9253375119       55.6392114077  MEMB      61              0.0000000000
      8148        67  POPC      H4R            65.7160172229        6.7249846003       56.5767417759  MEMB      61              0.0000000000
      8149        67  POPC      H4S            65.2063655442        8.0133110513       55.4203488500  MEMB      61              0.0000000000
      8150        67  POPC      C25            65.8267418994        6.1384097026       54.5030715060  MEMB      61              0.0000000000
      8151        67  POPC      H5R            65.5200617399        5.0705752821       54.5922797906  MEMB      61              0.0000000000
      8152        67  POPC      H5S            66.9333121856        6.1674137242       54.6207664930  MEMB      61              0.0000000000
      8153        67  POPC      C26            65.4804162770        6.6467395048       53.0960265505  MEMB      61              0.0000000000
      8154        67  POPC      H6R            66.1398558977        7.5066468533       52.8444136048  MEMB      61              0.0000000000
      8155        67  POPC      H6S            64.4333886941        7.0214245907       53.0811598537  MEMB      61              0.0000000000
      8156        67  POPC      C27            65.5986293811        5.5435604864       52.0299874134  MEMB      61              0.0000000000
      8157        67  POPC      H7R            64.9119779128        4.7167451016       52.3277877572  MEMB      61              0.0000000000
      8158        67  POPC      H7S            66.6333356493        5.1365569828       52.0153733018  MEMB      61              0.0000000000
      8159        67  POPC      C28            65.1783513025        6.0093310256       50.6264279874  MEMB      61              0.0000000000
      8160        67  POPC      H8R            64.1567939309        6.4375332359       50.7191115849  MEMB      61              0.0000000000
      8161        67  POPC      H8S            65.0894686073        5.1230914798       49.9613886917  MEMB      61              0.0000000000
      8162        67  POPC      C29            66.1619035893        6.9858067472       50.0358705091  MEMB      61              0.0000000000
      8163        67  POPC      H91            67.1847131300        6.5988164557       49.9026026938  MEMB      61              0.0000000000
      8164        67  POPC      C210           65.9060489417        8.2589688036       49.6969537318  MEMB      61              0.0000000000
      8165        67  POPC      H101           66.7103448341        8.8434098809       49.2416495035  MEMB      61              0.0000000000
      8166        67  POPC      C211           64.5945377592        8.9818178150       49.8284751406  MEMB      61              0.0000000000
      8167        67  POPC      H11R           64.5154465421        9.4586125385       50.8316740253  MEMB      61              0.0000000000
      8168        67  POPC      H11S           63.7795228545        8.2503204280       49.7778320109  MEMB      61              0.0000000000
      8169        67  POPC      C212           64.2641584265       10.0492796424       48.7613706247  MEMB      61              0.0000000000
      8170        67  POPC      H12R           64.6131913080       11.0231943447       49.1573819112  MEMB      61              0.0000000000
      8171        67  POPC      H12S           63.1587577792       10.1054265456       48.6515582282  MEMB      61              0.0000000000
      8172        67  POPC      C213           64.8878296923        9.8354102157       47.3766459316  MEMB      61              0.0000000000
      8173        67  POPC      H13R           65.0488668004        8.7497241422       47.2297685997  MEMB      61              0.0000000000
      8174        67  POPC      H13S           65.8778961267       10.3323182762       47.3346495934  MEMB      61              0.0000000000
      8175        67  POPC      C214           64.0570753769       10.3707995619       46.2033271687  MEMB      61              0.0000000000
      8176        67  POPC      H14R           63.4342870738       11.2281098572       46.5365223194  MEMB      61              0.0000000000
      8177        67  POPC      H14S           63.3695432976        9.5534503421       45.8942791126  MEMB      61              0.0000000000
      8178        67  POPC      C215           64.9382758811       10.8421754774       45.0293201850  MEMB      61              0.0000000000
      8179        67  POPC      H15R           65.7635462606       10.1286766502       44.8301796769  MEMB      61              0.0000000000
      8180        67  POPC      H15S           65.4427993712       11.7900226034       45.3212952867  MEMB      61              0.0000000000
      8181        67  POPC      C216           64.1713790967       11.0495714246       43.7122232347  MEMB      61              0.0000000000
      8182        67  POPC      H16R           64.9084848033       11.2271331373       42.8973141993  MEMB      61              0.0000000000
      8183        67  POPC      H16S           63.5808043028       11.9773852588       43.8372375713  MEMB      61              0.0000000000
      8184        67  POPC      C217           63.2308072888        9.8922899665       43.3139326701  MEMB      61              0.0000000000
      8185        67  POPC      H17R           62.2501271363       10.0413173902       43.8199267063  MEMB      61              0.0000000000
      8186        67  POPC      H17S           63.6536144395        8.9420253418       43.7051725748  MEMB      61              0.0000000000
      8187        67  POPC      C218           62.9923985928        9.7006806610       41.8091583977  MEMB      61              0.0000000000
      8188        67  POPC      H18R           63.9366247583        9.5817479764       41.2458686272  MEMB      61              0.0000000000
      8189        67  POPC      H18S           62.4651175918       10.5658028286       41.3717237434  MEMB      61              0.0000000000
      8190        67  POPC      H18T           62.3743290965        8.7943059013       41.6337900466  MEMB      61              0.0000000000
      8191        67  POPC      C33            60.7687270432        8.5170614978       53.9859899326  MEMB      61              0.0000000000
      8192        67  POPC      H3X            60.3438162992        7.5085970958       54.2103869177  MEMB      61              0.0000000000
      8193        67  POPC      H3Y            61.8539427446        8.4959034360       54.2271315947  MEMB      61              0.0000000000
      8194        67  POPC      C34            60.5728204221        8.8131338344       52.5038217235  MEMB      61              0.0000000000
      8195        67  POPC      H4X            60.8491892895        9.8725688850       52.2988037280  MEMB      61              0.0000000000
      8196        67  POPC      H4Y            59.4937394026        8.6946590176       52.2591555494  MEMB      61              0.0000000000
      8197        67  POPC      C35            61.3655010660        7.9096933188       51.5688060929  MEMB      61              0.0000000000
      8198        67  POPC      H5X            61.1194569933        6.8423085928       51.7602717234  MEMB      61              0.0000000000
      8199        67  POPC      H5Y            62.4584589958        8.0394108034       51.7388666067  MEMB      61              0.0000000000
      8200        67  POPC      C36            61.0195736150        8.2781212971       50.1272180782  MEMB      61              0.0000000000
      8201        67  POPC      H6X            61.5031764717        9.2591452571       49.9098128282  MEMB      61              0.0000000000
      8202        67  POPC      H6Y            59.9220083050        8.4149388814       50.0059964675  MEMB      61              0.0000000000
      8203        67  POPC      C37            61.4993421146        7.2553737002       49.1071798998  MEMB      61              0.0000000000
      8204        67  POPC      H7X            62.4961726075        6.8520498783       49.3815571300  MEMB      61              0.0000000000
      8205        67  POPC      H7Y            61.5970017986        7.8130534172       48.1503261021  MEMB      61              0.0000000000
      8206        67  POPC      C38            60.5915288270        6.0401445858       48.9289965855  MEMB      61              0.0000000000
      8207        67  POPC      H8X            59.6404789720        6.3493036389       48.4439644875  MEMB      61              0.0000000000
      8208        67  POPC      H8Y            60.3523257814        5.6137049835       49.9300235869  MEMB      61              0.0000000000
      8209        67  POPC      C39            61.2946060545        4.9545081095       48.1079362107  MEMB      61              0.0000000000
      8210        67  POPC      H9X            60.5954641309        4.1157389441       47.9015947830  MEMB      61              0.0000000000
      8211        67  POPC      H9Y            62.1232942894        4.5476416768       48.7343583072  MEMB      61              0.0000000000
      8212        67  POPC      C310           61.8992207472        5.4589860036       46.7910077607  MEMB      61              0.0000000000
      8213        67  POPC      H10X           62.8929785292        4.9858273694       46.6495196566  MEMB      61              0.0000000000
      8214        67  POPC      H10Y           62.1084762383        6.5448776162       46.7680219819  MEMB      61              0.0000000000
      8215        67  POPC      C311           61.0080761560        5.1451602098       45.5995237340  MEMB      61              0.0000000000
      8216        67  POPC      H11X           60.0302525792        5.6658093120       45.7134757370  MEMB      61              0.0000000000
      8217        67  POPC      H11Y           60.8134825982        4.0478526810       45.5750022698  MEMB      61              0.0000000000
      8218        67  POPC      C312           61.6890461313        5.5655122519       44.3007276933  MEMB      61              0.0000000000
      8219        67  POPC      H12X           62.6526344571        5.0170442758       44.2447138690  MEMB      61              0.0000000000
      8220        67  POPC      H12Y           61.9324783452        6.6547020144       44.3131034232  MEMB      61              0.0000000000
      8221        67  POPC      C313           60.8019848339        5.2558045665       43.1008222412  MEMB      61              0.0000000000
      8222        67  POPC      H13X           60.1783047517        4.3602066265       43.3194165255  MEMB      61              0.0000000000
      8223        67  POPC      H13Y           61.3811875533        5.0223631838       42.1866761886  MEMB      61              0.0000000000
      8224        67  POPC      C314           59.9395618198        6.4672589735       42.7846904950  MEMB      61              0.0000000000
      8225        67  POPC      H14X           60.5800548849        7.3643594859       42.6236045704  MEMB      61              0.0000000000
      8226        67  POPC      H14Y           59.2907332080        6.6720541582       43.6668833423  MEMB      61              0.0000000000
      8227        67  POPC      C315           59.0848064093        6.2493564979       41.5485718558  MEMB      61              0.0000000000
      8228        67  POPC      H15X           58.8179534969        5.1718101133       41.4434884935  MEMB      61              0.0000000000
      8229        67  POPC      H15Y           59.6284650052        6.5625754940       40.6352672114  MEMB      61              0.0000000000
      8230        67  POPC      C316           57.8366652046        7.0855083879       41.5949731300  MEMB      61              0.0000000000
      8231        67  POPC      H16X           56.9561995012        6.4268157961       41.4685585895  MEMB      61              0.0000000000
      8232        67  POPC      H16Y           57.8562577073        7.8249686805       40.7744877408  MEMB      61              0.0000000000
      8233        67  POPC      H16Z           57.7574130339        7.6402169194       42.5516720201  MEMB      61              0.0000000000
      8234        68  POPC      N              10.3677882304       61.7693444467       62.4183960998  MEMB      62              0.0000000000
      8235        68  POPC      C12             9.0125030653       61.6668670639       63.0822031729  MEMB      62              0.0000000000
      8236        68  POPC      H12A            9.1357978482       61.9407353446       64.1221125410  MEMB      62              0.0000000000
      8237        68  POPC      H12B            8.6934893382       60.6305871817       63.0488545975  MEMB      62              0.0000000000
      8238        68  POPC      C13            10.3416031240       61.2297324780       61.0183151977  MEMB      62              0.0000000000
      8239        68  POPC      H13A           10.0554881597       60.1832634996       61.0156158496  MEMB      62              0.0000000000
      8240        68  POPC      H13B            9.5834598523       61.7491529657       60.4244765623  MEMB      62              0.0000000000
      8241        68  POPC      H13C           11.3092685594       61.3221620196       60.5343450549  MEMB      62              0.0000000000
      8242        68  POPC      C14            10.8576054235       63.1810681180       62.4183140758  MEMB      62              0.0000000000
      8243        68  POPC      H14A           10.2221879205       63.8133227050       61.8115988427  MEMB      62              0.0000000000
      8244        68  POPC      H14B           10.9140742760       63.5658137423       63.4230391135  MEMB      62              0.0000000000
      8245        68  POPC      H14C           11.8602569958       63.2471828816       61.9868721733  MEMB      62              0.0000000000
      8246        68  POPC      C15            11.3258954802       60.9812713568       63.2063148217  MEMB      62              0.0000000000
      8247        68  POPC      H15A           12.3424428914       61.0783545539       62.8132496463  MEMB      62              0.0000000000
      8248        68  POPC      H15B           11.1459464265       59.9009450302       63.1043016364  MEMB      62              0.0000000000
      8249        68  POPC      H15C           11.3347987792       61.2319345547       64.2506703007  MEMB      62              0.0000000000
      8250        68  POPC      C11             7.8804900755       62.5108411654       62.4758950241  MEMB      62              0.0000000000
      8251        68  POPC      H11A            8.1681868500       63.5862683939       62.4817746961  MEMB      62              0.0000000000
      8252        68  POPC      H11B            6.9751301506       62.3763361247       63.1097331213  MEMB      62              0.0000000000
      8253        68  POPC      P               6.5656531208       62.7810445581       60.2399382662  MEMB      62              0.0000000000
      8254        68  POPC      O13             5.2558825731       62.7977008513       60.9247923132  MEMB      62              0.0000000000
      8255        68  POPC      O14             6.6321382857       62.1284404056       58.9112926115  MEMB      62              0.0000000000
      8256        68  POPC      O12             7.6316201750       62.0606192577       61.1552740853  MEMB      62              0.0000000000
      8257        68  POPC      O11             7.1991911241       64.2396458435       60.2163541724  MEMB      62              0.0000000000
      8258        68  POPC      C1              8.1508282391       64.6680095164       59.2466904040  MEMB      62              0.0000000000
      8259        68  POPC      HA              8.7646694737       63.8294535747       58.8381526539  MEMB      62              0.0000000000
      8260        68  POPC      HB              8.8492692432       65.3955327089       59.7155742102  MEMB      62              0.0000000000
      8261        68  POPC      C2              7.4369633397       65.3776529460       58.0779160666  MEMB      62              0.0000000000
      8262        68  POPC      HS              6.7860932640       66.1726787619       58.5188307981  MEMB      62              0.0000000000
      8263        68  POPC      O21             6.6652381609       64.3775317789       57.4038982564  MEMB      62              0.0000000000
      8264        68  POPC      C21             5.6404694630       64.8284433570       56.7443584674  MEMB      62              0.0000000000
      8265        68  POPC      O22             5.3888935767       66.0040547482       56.5447783202  MEMB      62              0.0000000000
      8266        68  POPC      C22             4.8532075827       63.6661131903       56.1768989090  MEMB      62              0.0000000000
      8267        68  POPC      H2R             3.8644994326       64.0570402237       55.8676727315  MEMB      62              0.0000000000
      8268        68  POPC      H2S             4.7177226990       62.9335629653       56.9969466355  MEMB      62              0.0000000000
      8269        68  POPC      C3              8.4312171851       66.0103148937       57.0819912679  MEMB      62              0.0000000000
      8270        68  POPC      HX              9.0874704222       66.7377727514       57.6094416339  MEMB      62              0.0000000000
      8271        68  POPC      HY              7.8355240996       66.6002881032       56.3422786821  MEMB      62              0.0000000000
      8272        68  POPC      O31             9.2211125178       64.9376344214       56.5126885234  MEMB      62              0.0000000000
      8273        68  POPC      C31             9.1224204072       64.8159313873       55.1995964339  MEMB      62              0.0000000000
      8274        68  POPC      O32             8.7105320625       65.6706716668       54.4415385242  MEMB      62              0.0000000000
      8275        68  POPC      C32             9.5977302455       63.4297448009       54.7780901329  MEMB      62              0.0000000000
      8276        68  POPC      H2X             8.7803773510       62.7046831635       54.9640075104  MEMB      62              0.0000000000
      8277        68  POPC      H2Y            10.4724675054       63.1484493640       55.3973740553  MEMB      62              0.0000000000
      8278        68  POPC      C23             5.6206713835       63.0398922851       54.9960636318  MEMB      62              0.0000000000
      8279        68  POPC      H3R             5.0498054252       62.1823855761       54.5834706056  MEMB      62              0.0000000000
      8280        68  POPC      H3S             6.5977393093       62.6422325945       55.3473291724  MEMB      62              0.0000000000
      8281        68  POPC      C24             5.8027745046       64.0415191605       53.8567968545  MEMB      62              0.0000000000
      8282        68  POPC      H4R             6.5783833199       64.7853546677       54.1165907348  MEMB      62              0.0000000000
      8283        68  POPC      H4S             4.8599961378       64.6163428533       53.7540778263  MEMB      62              0.0000000000
      8284        68  POPC      C25             6.1332459202       63.3773626921       52.5214253073  MEMB      62              0.0000000000
      8285        68  POPC      H5R             5.4143816497       62.5484354712       52.3363244153  MEMB      62              0.0000000000
      8286        68  POPC      H5S             7.1480609974       62.9309943353       52.5840341456  MEMB      62              0.0000000000
      8287        68  POPC      C26             6.0712363300       64.3586315765       51.3449630198  MEMB      62              0.0000000000
      8288        68  POPC      H6R             6.5778155551       65.3094052834       51.6305417093  MEMB      62              0.0000000000
      8289        68  POPC      H6S             5.0120818874       64.6032370727       51.1165311618  MEMB      62              0.0000000000
      8290        68  POPC      C27             6.7285587012       63.8015634627       50.0760350463  MEMB      62              0.0000000000
      8291        68  POPC      H7R             7.8159824279       63.6944626690       50.2851090788  MEMB      62              0.0000000000
      8292        68  POPC      H7S             6.6152995683       64.5467361186       49.2563305910  MEMB      62              0.0000000000
      8293        68  POPC      C28             6.1532982479       62.4413360130       49.6365250579  MEMB      62              0.0000000000
      8294        68  POPC      H8R             5.0684315604       62.5699461168       49.4253651642  MEMB      62              0.0000000000
      8295        68  POPC      H8S             6.2418695351       61.7181696733       50.4746580438  MEMB      62              0.0000000000
      8296        68  POPC      C29             6.9126790155       61.8938827835       48.4569374470  MEMB      62              0.0000000000
      8297        68  POPC      H91             8.0089886320       61.9542264119       48.5580823742  MEMB      62              0.0000000000
      8298        68  POPC      C210            6.3963570351       61.3509280413       47.3412823941  MEMB      62              0.0000000000
      8299        68  POPC      H101            7.0993970819       60.9914534180       46.5733878986  MEMB      62              0.0000000000
      8300        68  POPC      C211            4.9341360076       61.1551904067       47.0002585024  MEMB      62              0.0000000000
      8301        68  POPC      H11R            4.2990683678       61.1933634768       47.9119188639  MEMB      62              0.0000000000
      8302        68  POPC      H11S            4.7944067054       60.1351096764       46.5768662989  MEMB      62              0.0000000000
      8303        68  POPC      C212            4.3668803719       62.1763450831       45.9825674226  MEMB      62              0.0000000000
      8304        68  POPC      H12R            4.3902610735       63.1914963337       46.4401567595  MEMB      62              0.0000000000
      8305        68  POPC      H12S            3.3002492747       61.9312629665       45.7829430680  MEMB      62              0.0000000000
      8306        68  POPC      C213            5.1385728947       62.2126499962       44.6510596215  MEMB      62              0.0000000000
      8307        68  POPC      H13R            6.0069755844       61.5347792038       44.7743527428  MEMB      62              0.0000000000
      8308        68  POPC      H13S            5.5537541734       63.2289618024       44.4842321495  MEMB      62              0.0000000000
      8309        68  POPC      C214            4.3477016611       61.7785279102       43.4011931203  MEMB      62              0.0000000000
      8310        68  POPC      H14R            3.5179822104       62.4943830105       43.2062683587  MEMB      62              0.0000000000
      8311        68  POPC      H14S            3.8935674036       60.7843643978       43.6049262229  MEMB      62              0.0000000000
      8312        68  POPC      C215            5.2328622854       61.6483659272       42.1418826436  MEMB      62              0.0000000000
      8313        68  POPC      H15R            5.4228671479       62.6561733546       41.7067882674  MEMB      62              0.0000000000
      8314        68  POPC      H15S            4.6857659251       61.0514604544       41.3779115725  MEMB      62              0.0000000000
      8315        68  POPC      C216            6.5947950074       60.9985864307       42.4496722830  MEMB      62              0.0000000000
      8316        68  POPC      H16R            6.4466565094       60.1454534129       43.1502962641  MEMB      62              0.0000000000
      8317        68  POPC      H16S            7.2260267090       61.7632445252       42.9605388709  MEMB      62              0.0000000000
      8318        68  POPC      C217            7.3726006110       60.4804591900       41.2430197262  MEMB      62              0.0000000000
      8319        68  POPC      H17R            8.4363866277       60.3679814083       41.5413079135  MEMB      62              0.0000000000
      8320        68  POPC      H17S            7.3478559830       61.2362741115       40.4343374697  MEMB      62              0.0000000000
      8321        68  POPC      C218            6.8572492193       59.1371027500       40.7343736076  MEMB      62              0.0000000000
      8322        68  POPC      H18R            6.8134531893       58.3910381005       41.5558148402  MEMB      62              0.0000000000
      8323        68  POPC      H18S            7.5092705168       58.7322166818       39.9311411906  MEMB      62              0.0000000000
      8324        68  POPC      H18T            5.8345131190       59.2723439248       40.3244216919  MEMB      62              0.0000000000
      8325        68  POPC      C33             9.9629776112       63.4325997429       53.2834319070  MEMB      62              0.0000000000
      8326        68  POPC      H3X            10.7638517342       64.1899742186       53.1352923058  MEMB      62              0.0000000000
      8327        68  POPC      H3Y             9.0941422251       63.7589763798       52.6687750016  MEMB      62              0.0000000000
      8328        68  POPC      C34            10.4250808404       62.0596087063       52.7783482244  MEMB      62              0.0000000000
      8329        68  POPC      H4X             9.6559973341       61.2966883487       53.0379593729  MEMB      62              0.0000000000
      8330        68  POPC      H4Y            11.3711237822       61.7816597688       53.2963320893  MEMB      62              0.0000000000
      8331        68  POPC      C35            10.6437061433       62.0283849243       51.2589904523  MEMB      62              0.0000000000
      8332        68  POPC      H5X             9.6581699945       62.0947919644       50.7455093531  MEMB      62              0.0000000000
      8333        68  POPC      H5Y            11.0913655218       61.0472848189       50.9752648544  MEMB      62              0.0000000000
      8334        68  POPC      C36            11.5506657888       63.1562627443       50.7427408830  MEMB      62              0.0000000000
      8335        68  POPC      H6X            12.4196788335       62.6669018363       50.2522075746  MEMB      62              0.0000000000
      8336        68  POPC      H6Y            11.9665018418       63.7529153449       51.5796493193  MEMB      62              0.0000000000
      8337        68  POPC      C37            10.8634455049       64.0989393706       49.7362338636  MEMB      62              0.0000000000
      8338        68  POPC      H7X            11.4148870783       65.0642130968       49.6818267932  MEMB      62              0.0000000000
      8339        68  POPC      H7Y             9.8357251618       64.3337937870       50.0809445191  MEMB      62              0.0000000000
      8340        68  POPC      C38            10.8450380905       63.4473847238       48.3508208570  MEMB      62              0.0000000000
      8341        68  POPC      H8X            10.4866421027       62.4004812646       48.4692378603  MEMB      62              0.0000000000
      8342        68  POPC      H8Y            11.8919804351       63.3972079801       47.9727401333  MEMB      62              0.0000000000
      8343        68  POPC      C39             9.9895813780       64.1178933885       47.2699590288  MEMB      62              0.0000000000
      8344        68  POPC      H9X            10.4753217541       65.0701133095       46.9775428199  MEMB      62              0.0000000000
      8345        68  POPC      H9Y             8.9692477522       64.3437051428       47.6488000254  MEMB      62              0.0000000000
      8346        68  POPC      C310            9.9099605679       63.1814031815       46.0556691162  MEMB      62              0.0000000000
      8347        68  POPC      H10X            9.3055791175       62.2872583795       46.3289241145  MEMB      62              0.0000000000
      8348        68  POPC      H10Y           10.9473534610       62.8425867260       45.8419529367  MEMB      62              0.0000000000
      8349        68  POPC      C311            9.3741349279       63.7907372187       44.7582354409  MEMB      62              0.0000000000
      8350        68  POPC      H11X            8.3728521016       64.2372258203       44.9349728590  MEMB      62              0.0000000000
      8351        68  POPC      H11Y            9.2462537614       62.9601512827       44.0225811678  MEMB      62              0.0000000000
      8352        68  POPC      C312           10.3482359052       64.8130583147       44.1521766370  MEMB      62              0.0000000000
      8353        68  POPC      H12X           11.3551799391       64.3370963250       44.0976837681  MEMB      62              0.0000000000
      8354        68  POPC      H12Y           10.4321601684       65.7039530862       44.8096341824  MEMB      62              0.0000000000
      8355        68  POPC      C313            9.9615615364       65.2446653390       42.7349151340  MEMB      62              0.0000000000
      8356        68  POPC      H13X            9.7897828887       64.3188276904       42.1426558913  MEMB      62              0.0000000000
      8357        68  POPC      H13Y           10.8014534814       65.7961884879       42.2557644265  MEMB      62              0.0000000000
      8358        68  POPC      C314            8.6915242936       66.0982728418       42.6677809004  MEMB      62              0.0000000000
      8359        68  POPC      H14X            8.9480048852       67.1773563112       42.7608281789  MEMB      62              0.0000000000
      8360        68  POPC      H14Y            8.0263938921       65.8515957321       43.5227445971  MEMB      62              0.0000000000
      8361        68  POPC      C315            7.9106479837       65.8497491860       41.3737372601  MEMB      62              0.0000000000
      8362        68  POPC      H15X            6.9410971135       66.3486575121       41.4689294836  MEMB      62              0.0000000000
      8363        68  POPC      H15Y            7.7059552500       64.7616312212       41.2529987526  MEMB      62              0.0000000000
      8364        68  POPC      C316            8.5791715734       66.4015206691       40.1255527521  MEMB      62              0.0000000000
      8365        68  POPC      H16X            9.5207214271       65.8435269464       39.9685466413  MEMB      62              0.0000000000
      8366        68  POPC      H16Y            8.8182853513       67.4811163037       40.2565359419  MEMB      62              0.0000000000
      8367        68  POPC      H16Z            7.9387006055       66.2876627378       39.2252073084  MEMB      62              0.0000000000
      8368        69  POPS      N              58.6762866100       63.6011699387       62.4890558576  MEMB      63              0.0000000000
      8369        69  POPS      HN1            58.5317682813       63.8936697250       63.4802229385  MEMB      63              0.0000000000
      8370        69  POPS      HN2            58.1518376178       64.2958325779       61.8987640691  MEMB      63              0.0000000000
      8371        69  POPS      HN3            58.4055481769       62.6055303628       62.3553735813  MEMB      63              0.0000000000
      8372        69  POPS      C12            60.1278366531       63.8343927303       62.2016804847  MEMB      63              0.0000000000
      8373        69  POPS      H12A           60.3119716798       63.5872972841       61.1667127416  MEMB      63              0.0000000000
      8374        69  POPS      C13            61.1066207515       62.9653397814       63.0347535680  MEMB      63              0.0000000000
      8375        69  POPS      O13A           60.6249201861       61.9622216134       63.6458374227  MEMB      63              0.0000000000
      8376        69  POPS      O13B           62.3264922837       63.2716902954       63.0493911127  MEMB      63              0.0000000000
      8377        69  POPS      C11            60.3054313415       65.3650085592       62.3293821830  MEMB      63              0.0000000000
      8378        69  POPS      H11A           61.3574215556       65.6111383689       62.0299362247  MEMB      63              0.0000000000
      8379        69  POPS      H11B           60.2036582011       65.6916994893       63.3900951342  MEMB      63              0.0000000000
      8380        69  POPS      P              59.7654867224       67.0465193895       60.4193498608  MEMB      63              0.0000000000
      8381        69  POPS      O13            60.6687643549       68.0309154790       61.0618951645  MEMB      63              0.0000000000
      8382        69  POPS      O14            58.6127033391       67.4817476377       59.6517404400  MEMB      63              0.0000000000
      8383        69  POPS      O12            59.2853618767       66.0116864678       61.5224746871  MEMB      63              0.0000000000
      8384        69  POPS      O11            60.5429887954       65.9700066445       59.5202452870  MEMB      63              0.0000000000
      8385        69  POPS      C1             59.9570541689       65.5976032851       58.2507938484  MEMB      63              0.0000000000
      8386        69  POPS      HA             60.0271723366       66.4470033288       57.5292064920  MEMB      63              0.0000000000
      8387        69  POPS      HB             58.8703546528       65.3595274712       58.3571896260  MEMB      63              0.0000000000
      8388        69  POPS      C2             60.6373374447       64.3587020262       57.5772205386  MEMB      63              0.0000000000
      8389        69  POPS      HS             61.1438495646       63.7732424389       58.3766544590  MEMB      63              0.0000000000
      8390        69  POPS      O21            61.6044462902       64.8491876760       56.6185762929  MEMB      63              0.0000000000
      8391        69  POPS      C21            62.3123713523       63.9640805500       55.9358613331  MEMB      63              0.0000000000
      8392        69  POPS      O22            62.3576387326       62.7686215201       56.1541009841  MEMB      63              0.0000000000
      8393        69  POPS      C22            62.9913288481       64.6765296393       54.7599976133  MEMB      63              0.0000000000
      8394        69  POPS      H2R            63.5601903162       65.5116986967       55.2155249336  MEMB      63              0.0000000000
      8395        69  POPS      H2S            62.2138380484       65.1035999032       54.0987278139  MEMB      63              0.0000000000
      8396        69  POPS      C3             59.5673415719       63.4307650784       56.9004673491  MEMB      63              0.0000000000
      8397        69  POPS      HX             58.7631099612       63.1916471517       57.6287230348  MEMB      63              0.0000000000
      8398        69  POPS      HY             60.0456929094       62.4595274319       56.6231944093  MEMB      63              0.0000000000
      8399        69  POPS      O31            59.0006289645       64.1230354157       55.7714142945  MEMB      63              0.0000000000
      8400        69  POPS      C31            58.8597824260       63.3867744542       54.6748494333  MEMB      63              0.0000000000
      8401        69  POPS      O32            58.6602499070       62.1925791036       54.6356198409  MEMB      63              0.0000000000
      8402        69  POPS      C32            59.1788376747       64.2459731722       53.4643547970  MEMB      63              0.0000000000
      8403        69  POPS      H2X            59.7381327247       63.6177074901       52.7397376778  MEMB      63              0.0000000000
      8404        69  POPS      H2Y            59.8618183777       65.0383449264       53.8343419090  MEMB      63              0.0000000000
      8405        69  POPS      C23            63.9764277387       63.7786630322       53.9696749560  MEMB      63              0.0000000000
      8406        69  POPS      H3R            64.6258150498       63.2180157063       54.6812856507  MEMB      63              0.0000000000
      8407        69  POPS      H3S            64.6402741075       64.4370419770       53.3674322489  MEMB      63              0.0000000000
      8408        69  POPS      C24            63.3248547258       62.7999784407       52.9904875150  MEMB      63              0.0000000000
      8409        69  POPS      H4R            62.5154917276       62.2310576892       53.5007615609  MEMB      63              0.0000000000
      8410        69  POPS      H4S            64.0966940143       62.0623278200       52.6637685233  MEMB      63              0.0000000000
      8411        69  POPS      C25            62.7670519720       63.4819381686       51.7357416269  MEMB      63              0.0000000000
      8412        69  POPS      H5R            63.5852385533       63.9994075117       51.1863998628  MEMB      63              0.0000000000
      8413        69  POPS      H5S            62.0199619513       64.2491400864       52.0333686311  MEMB      63              0.0000000000
      8414        69  POPS      C26            62.0974272877       62.4717507851       50.8079313082  MEMB      63              0.0000000000
      8415        69  POPS      H6R            61.4083828180       61.8400489617       51.4123443731  MEMB      63              0.0000000000
      8416        69  POPS      H6S            62.8837320068       61.8076744278       50.3915474201  MEMB      63              0.0000000000
      8417        69  POPS      C27            61.3243498798       63.1412845892       49.6655965905  MEMB      63              0.0000000000
      8418        69  POPS      H7R            62.0561832637       63.6657714686       49.0102961774  MEMB      63              0.0000000000
      8419        69  POPS      H7S            60.6436799007       63.9121971401       50.0891524421  MEMB      63              0.0000000000
      8420        69  POPS      C28            60.5102132975       62.1522562755       48.8129594125  MEMB      63              0.0000000000
      8421        69  POPS      H8R            61.1980023205       61.3571192079       48.4714242906  MEMB      63              0.0000000000
      8422        69  POPS      H8S            60.1886826152       62.6791651180       47.8875394970  MEMB      63              0.0000000000
      8423        69  POPS      C29            59.3428125434       61.5657132055       49.5786443748  MEMB      63              0.0000000000
      8424        69  POPS      H91            59.6068438517       61.0404523469       50.5083667799  MEMB      63              0.0000000000
      8425        69  POPS      C210           58.0479268361       61.6085716738       49.2182645928  MEMB      63              0.0000000000
      8426        69  POPS      H101           57.2911404179       61.1281451106       49.8593520933  MEMB      63              0.0000000000
      8427        69  POPS      C211           57.5305422036       62.2571256894       47.9652587352  MEMB      63              0.0000000000
      8428        69  POPS      H11R           56.4549765399       62.0159510677       47.8048464574  MEMB      63              0.0000000000
      8429        69  POPS      H11S           58.0780026647       61.8258282042       47.0991268331  MEMB      63              0.0000000000
      8430        69  POPS      C212           57.6975168707       63.7864685354       47.9053995575  MEMB      63              0.0000000000
      8431        69  POPS      H12R           58.6986318680       64.1009788372       48.2705729765  MEMB      63              0.0000000000
      8432        69  POPS      H12S           56.9512765656       64.2734018038       48.5681039053  MEMB      63              0.0000000000
      8433        69  POPS      C213           57.5530187701       64.2710096376       46.4604443971  MEMB      63              0.0000000000
      8434        69  POPS      H13R           56.5069794639       64.0869633047       46.1390139709  MEMB      63              0.0000000000
      8435        69  POPS      H13S           58.2127429615       63.6557326948       45.8121728480  MEMB      63              0.0000000000
      8436        69  POPS      C214           57.9667391282       65.7283124860       46.2399749175  MEMB      63              0.0000000000
      8437        69  POPS      H14R           59.0588915249       65.7540122926       46.0912903971  MEMB      63              0.0000000000
      8438        69  POPS      H14S           57.7556900770       66.3076957905       47.1612206321  MEMB      63              0.0000000000
      8439        69  POPS      C215           57.2670822606       66.3906288716       45.0491038358  MEMB      63              0.0000000000
      8440        69  POPS      H15R           56.7069217559       67.2666682723       45.4414740729  MEMB      63              0.0000000000
      8441        69  POPS      H15S           56.5267205574       65.6793284875       44.6231308076  MEMB      63              0.0000000000
      8442        69  POPS      C216           58.1761646330       66.8970176625       43.9213725055  MEMB      63              0.0000000000
      8443        69  POPS      H16R           58.8219179182       66.0711932812       43.5587625036  MEMB      63              0.0000000000
      8444        69  POPS      H16S           58.8312111537       67.6921959150       44.3433880727  MEMB      63              0.0000000000
      8445        69  POPS      C217           57.3831625575       67.4886610226       42.7399148747  MEMB      63              0.0000000000
      8446        69  POPS      H17R           58.0526377912       68.1586726411       42.1561556616  MEMB      63              0.0000000000
      8447        69  POPS      H17S           56.5700505702       68.1328880477       43.1405705917  MEMB      63              0.0000000000
      8448        69  POPS      C218           56.7866826040       66.4480861689       41.7850956601  MEMB      63              0.0000000000
      8449        69  POPS      H18R           56.1416173569       65.7316724248       42.3361016942  MEMB      63              0.0000000000
      8450        69  POPS      H18S           57.5852311799       65.8692713886       41.2801077298  MEMB      63              0.0000000000
      8451        69  POPS      H18T           56.1711078876       66.9402170447       41.0009131788  MEMB      63              0.0000000000
      8452        69  POPS      C33            57.9397259993       64.8503275244       52.7698424510  MEMB      63              0.0000000000
      8453        69  POPS      H3X            57.2681697099       65.3264857368       53.5187791351  MEMB      63              0.0000000000
      8454        69  POPS      H3Y            57.3589417530       64.0523324520       52.2522841197  MEMB      63              0.0000000000
      8455        69  POPS      C34            58.3397073348       65.9228444800       51.7485147870  MEMB      63              0.0000000000
      8456        69  POPS      H4X            57.4283113471       66.4752639593       51.4276183166  MEMB      63              0.0000000000
      8457        69  POPS      H4Y            58.7663242279       65.4171389921       50.8524386204  MEMB      63              0.0000000000
      8458        69  POPS      C35            59.3825420846       66.9174026020       52.2938769070  MEMB      63              0.0000000000
      8459        69  POPS      H5X            60.3839401297       66.4286714456       52.2973417099  MEMB      63              0.0000000000
      8460        69  POPS      H5Y            59.1221114894       67.1863999562       53.3448845228  MEMB      63              0.0000000000
      8461        69  POPS      C36            59.4891712106       68.2152655515       51.4956233347  MEMB      63              0.0000000000
      8462        69  POPS      H6X            60.3641948141       68.8028482437       51.8557186270  MEMB      63              0.0000000000
      8463        69  POPS      H6Y            58.5700348360       68.8166796745       51.6971890609  MEMB      63              0.0000000000
      8464        69  POPS      C37            59.5931227053       67.9927665982       49.9858565864  MEMB      63              0.0000000000
      8465        69  POPS      H7X            59.6268396343       68.9847585859       49.4890178468  MEMB      63              0.0000000000
      8466        69  POPS      H7Y            58.6666097323       67.4751002312       49.6507673508  MEMB      63              0.0000000000
      8467        69  POPS      C38            60.7843008381       67.1662429694       49.4936612690  MEMB      63              0.0000000000
      8468        69  POPS      H8X            60.6351833800       66.1051790825       49.7873758720  MEMB      63              0.0000000000
      8469        69  POPS      H8Y            61.7269359404       67.5221530394       49.9612213581  MEMB      63              0.0000000000
      8470        69  POPS      C39            60.8816720399       67.2650134164       47.9671251155  MEMB      63              0.0000000000
      8471        69  POPS      H9X            61.4827641716       68.1568437974       47.6946920682  MEMB      63              0.0000000000
      8472        69  POPS      H9Y            59.8614155109       67.4325092256       47.5542860081  MEMB      63              0.0000000000
      8473        69  POPS      C310           61.4419561450       66.0174409416       47.2819096549  MEMB      63              0.0000000000
      8474        69  POPS      H10X           60.7413693179       65.1712245824       47.4621974514  MEMB      63              0.0000000000
      8475        69  POPS      H10Y           62.4203459311       65.7349943609       47.7260894609  MEMB      63              0.0000000000
      8476        69  POPS      C311           61.5900244331       66.2553088018       45.7730965292  MEMB      63              0.0000000000
      8477        69  POPS      H11X           62.4688514611       66.8934733127       45.5838248938  MEMB      63              0.0000000000
      8478        69  POPS      H11Y           60.7077681482       66.8027598244       45.3799684878  MEMB      63              0.0000000000
      8479        69  POPS      C312           61.7745018408       64.9759105494       44.9744334729  MEMB      63              0.0000000000
      8480        69  POPS      H12X           60.9196446185       64.2932215439       45.1870418609  MEMB      63              0.0000000000
      8481        69  POPS      H12Y           62.6863032479       64.4682120711       45.3510480686  MEMB      63              0.0000000000
      8482        69  POPS      C313           61.8523669852       65.2110932501       43.4520576214  MEMB      63              0.0000000000
      8483        69  POPS      H13X           60.8399010823       65.4691137626       43.0869887726  MEMB      63              0.0000000000
      8484        69  POPS      H13Y           62.1087147672       64.2278991277       43.0079905193  MEMB      63              0.0000000000
      8485        69  POPS      C314           62.8290637812       66.2910035775       42.9129305548  MEMB      63              0.0000000000
      8486        69  POPS      H14X           63.6075766664       66.4892414883       43.6779564620  MEMB      63              0.0000000000
      8487        69  POPS      H14Y           62.2754802798       67.2366777918       42.7445273334  MEMB      63              0.0000000000
      8488        69  POPS      C315           63.5517870497       65.8239240247       41.6278484068  MEMB      63              0.0000000000
      8489        69  POPS      H15X           62.9406123232       65.0090543642       41.1816597834  MEMB      63              0.0000000000
      8490        69  POPS      H15Y           64.5175430773       65.4097456327       41.9668445915  MEMB      63              0.0000000000
      8491        69  POPS      C316           63.8773247708       66.7478567863       40.4570923674  MEMB      63              0.0000000000
      8492        69  POPS      H16X           62.9798365672       66.9260382359       39.8598457505  MEMB      63              0.0000000000
      8493        69  POPS      H16Y           64.5590841894       66.2367721878       39.7533950737  MEMB      63              0.0000000000
      8494        69  POPS      H16Z           64.3467228501       67.7004151177       40.7434807519  MEMB      63              0.0000000000
      8495        70  POPS      N              68.2851509549       59.8339085459       60.4179958087  MEMB      64              0.0000000000
      8496        70  POPS      HN1            69.0506034313       59.9262102952       59.7210830112  MEMB      64              0.0000000000
      8497        70  POPS      HN2            67.4713331467       60.4095523851       60.1257169275  MEMB      64              0.0000000000
      8498        70  POPS      HN3            68.6080050235       60.1153021398       61.3704733966  MEMB      64              0.0000000000
      8499        70  POPS      C12            67.8030787846       58.4147041996       60.4611883962  MEMB      64              0.0000000000
      8500        70  POPS      H12A           68.6175541564       57.8054994846       60.8292420414  MEMB      64              0.0000000000
      8501        70  POPS      C13            67.3246525761       57.8492053985       59.1113163516  MEMB      64              0.0000000000
      8502        70  POPS      O13A           67.0741168015       58.6584980800       58.1891826020  MEMB      64              0.0000000000
      8503        70  POPS      O13B           67.1348507057       56.6147145014       59.0110921114  MEMB      64              0.0000000000
      8504        70  POPS      C11            66.5431843147       58.3278509695       61.3759826799  MEMB      64              0.0000000000
      8505        70  POPS      H11A           66.4182791854       57.2595210274       61.6701821611  MEMB      64              0.0000000000
      8506        70  POPS      H11B           65.6483730343       58.6080786849       60.7637060697  MEMB      64              0.0000000000
      8507        70  POPS      P              65.4472828787       59.8260571533       63.2324231200  MEMB      64              0.0000000000
      8508        70  POPS      O13            66.0110999434       60.9606415317       63.9804175461  MEMB      64              0.0000000000
      8509        70  POPS      O14            64.8133545966       58.7683492451       64.0479523099  MEMB      64              0.0000000000
      8510        70  POPS      O12            66.6749054616       59.1540551077       62.5322826745  MEMB      64              0.0000000000
      8511        70  POPS      O11            64.5069949135       60.2514600487       62.0396012405  MEMB      64              0.0000000000
      8512        70  POPS      C1             64.7735703142       61.4916006891       61.3803428928  MEMB      64              0.0000000000
      8513        70  POPS      HA             65.8458695264       61.5951041943       61.0914788324  MEMB      64              0.0000000000
      8514        70  POPS      HB             64.4917438319       62.3492003442       62.0379294924  MEMB      64              0.0000000000
      8515        70  POPS      C2             63.9460709291       61.5833769587       60.0808526475  MEMB      64              0.0000000000
      8516        70  POPS      HS             62.8752131846       61.5850888244       60.4040806667  MEMB      64              0.0000000000
      8517        70  POPS      O21            64.3041586690       60.4749085296       59.2193488009  MEMB      64              0.0000000000
      8518        70  POPS      C21            63.2765041302       59.8446700550       58.6934768934  MEMB      64              0.0000000000
      8519        70  POPS      O22            62.1058779713       60.0949239648       58.9370767839  MEMB      64              0.0000000000
      8520        70  POPS      C22            63.7283038113       58.7487889395       57.7425313636  MEMB      64              0.0000000000
      8521        70  POPS      H2R            63.9158149464       57.8303094310       58.3332515475  MEMB      64              0.0000000000
      8522        70  POPS      H2S            64.6882534615       59.0453027097       57.2707721336  MEMB      64              0.0000000000
      8523        70  POPS      C3             64.2065085983       62.9064056150       59.3223151630  MEMB      64              0.0000000000
      8524        70  POPS      HX             63.9308173048       63.7531966521       59.9898505698  MEMB      64              0.0000000000
      8525        70  POPS      HY             63.5192763759       62.8851414135       58.4418746864  MEMB      64              0.0000000000
      8526        70  POPS      O31            65.5986465458       62.9893755051       58.9452599828  MEMB      64              0.0000000000
      8527        70  POPS      C31            65.8349584821       63.4888693906       57.7469848313  MEMB      64              0.0000000000
      8528        70  POPS      O32            65.0484677258       64.1011639647       57.0477826467  MEMB      64              0.0000000000
      8529        70  POPS      C32            67.1998100425       63.0140747800       57.2825345957  MEMB      64              0.0000000000
      8530        70  POPS      H2X            67.9732491698       63.5442981402       57.8742997893  MEMB      64              0.0000000000
      8531        70  POPS      H2Y            67.2946559661       63.2826900244       56.2165440378  MEMB      64              0.0000000000
      8532        70  POPS      C23            62.6382723670       58.4888161331       56.6782826491  MEMB      64              0.0000000000
      8533        70  POPS      H3R            61.6205138861       58.5794868362       57.1208454254  MEMB      64              0.0000000000
      8534        70  POPS      H3S            62.7131932315       57.4402575869       56.3257364689  MEMB      64              0.0000000000
      8535        70  POPS      C24            62.7631673154       59.4655065578       55.5013504770  MEMB      64              0.0000000000
      8536        70  POPS      H4R            63.0086231994       60.4772801944       55.8936405689  MEMB      64              0.0000000000
      8537        70  POPS      H4S            61.7802113185       59.5466594360       54.9856185522  MEMB      64              0.0000000000
      8538        70  POPS      C25            63.8285359429       59.0731415515       54.4699915318  MEMB      64              0.0000000000
      8539        70  POPS      H5R            64.8441596549       59.1480835886       54.9193529495  MEMB      64              0.0000000000
      8540        70  POPS      H5S            63.7762626048       59.8155021942       53.6431285162  MEMB      64              0.0000000000
      8541        70  POPS      C26            63.6314596643       57.6552184189       53.9192111483  MEMB      64              0.0000000000
      8542        70  POPS      H6R            62.5566450625       57.4887346347       53.6994890567  MEMB      64              0.0000000000
      8543        70  POPS      H6S            63.9235160979       56.9090912443       54.6942002411  MEMB      64              0.0000000000
      8544        70  POPS      C27            64.4523632337       57.3719871900       52.6597648685  MEMB      64              0.0000000000
      8545        70  POPS      H7R            64.2653160590       56.3217173277       52.3666397902  MEMB      64              0.0000000000
      8546        70  POPS      H7S            65.5272349729       57.4071776242       52.9348166603  MEMB      64              0.0000000000
      8547        70  POPS      C28            64.1931619693       58.3109452421       51.4585145640  MEMB      64              0.0000000000
      8548        70  POPS      H8R            64.6303663634       57.7949436609       50.5750167612  MEMB      64              0.0000000000
      8549        70  POPS      H8S            64.7703010572       59.2464302597       51.6310653428  MEMB      64              0.0000000000
      8550        70  POPS      C29            62.7751475198       58.6861112411       51.1320254209  MEMB      64              0.0000000000
      8551        70  POPS      H91            62.0545008395       58.6072417269       51.9589193959  MEMB      64              0.0000000000
      8552        70  POPS      C210           62.3585174425       59.1919356500       49.9580215354  MEMB      64              0.0000000000
      8553        70  POPS      H101           61.2959205735       59.4561029007       49.8460765649  MEMB      64              0.0000000000
      8554        70  POPS      C211           63.2174888888       59.4828739417       48.7522660318  MEMB      64              0.0000000000
      8555        70  POPS      H11R           64.1624386621       58.8976923972       48.7577798001  MEMB      64              0.0000000000
      8556        70  POPS      H11S           63.5223638879       60.5536763756       48.7773110047  MEMB      64              0.0000000000
      8557        70  POPS      C212           62.5048626255       59.2360783062       47.4071911603  MEMB      64              0.0000000000
      8558        70  POPS      H12R           61.4331874033       59.5307469669       47.4488478144  MEMB      64              0.0000000000
      8559        70  POPS      H12S           62.5426838647       58.1472736757       47.1810903672  MEMB      64              0.0000000000
      8560        70  POPS      C213           63.1850858355       60.0334914976       46.2887516295  MEMB      64              0.0000000000
      8561        70  POPS      H13R           64.2735612989       59.7953967342       46.3478100893  MEMB      64              0.0000000000
      8562        70  POPS      H13S           63.0866002940       61.1266454839       46.4725831379  MEMB      64              0.0000000000
      8563        70  POPS      C214           62.7011216974       59.6945251740       44.8717069409  MEMB      64              0.0000000000
      8564        70  POPS      H14R           62.0069272154       60.4844323465       44.5066589155  MEMB      64              0.0000000000
      8565        70  POPS      H14S           62.1435556202       58.7342035522       44.8756067836  MEMB      64              0.0000000000
      8566        70  POPS      C215           63.9132868964       59.5576026218       43.9420879888  MEMB      64              0.0000000000
      8567        70  POPS      H15R           64.5533520201       58.7319473584       44.3299909938  MEMB      64              0.0000000000
      8568        70  POPS      H15S           64.5017109387       60.4912056455       44.0285458097  MEMB      64              0.0000000000
      8569        70  POPS      C216           63.6078201705       59.2679598996       42.4659139082  MEMB      64              0.0000000000
      8570        70  POPS      H16R           62.7503445024       59.8854432291       42.1162197946  MEMB      64              0.0000000000
      8571        70  POPS      H16S           63.3084934667       58.1982554228       42.3995480927  MEMB      64              0.0000000000
      8572        70  POPS      C217           64.8095017747       59.4932675957       41.5208196727  MEMB      64              0.0000000000
      8573        70  POPS      H17R           64.7501654648       60.4522655961       40.9721751804  MEMB      64              0.0000000000
      8574        70  POPS      H17S           64.7070397424       58.7782410966       40.6971381283  MEMB      64              0.0000000000
      8575        70  POPS      C218           66.1951946083       59.3702906010       42.1651713763  MEMB      64              0.0000000000
      8576        70  POPS      H18R           66.3466585903       60.1284286029       42.9632596104  MEMB      64              0.0000000000
      8577        70  POPS      H18S           66.9942175932       59.5247248974       41.4095238595  MEMB      64              0.0000000000
      8578        70  POPS      H18T           66.3180182008       58.3599928549       42.6085287331  MEMB      64              0.0000000000
      8579        70  POPS      C33            67.3277559899       61.4860438018       57.4399513638  MEMB      64              0.0000000000
      8580        70  POPS      H3X            66.5813991349       60.9643575052       56.8002683005  MEMB      64              0.0000000000
      8581        70  POPS      H3Y            67.0671135887       61.2118583805       58.4852827437  MEMB      64              0.0000000000
      8582        70  POPS      C34            68.7381211698       60.9475108624       57.1632388303  MEMB      64              0.0000000000
      8583        70  POPS      H4X            68.8454596698       59.9040837818       57.5285243359  MEMB      64              0.0000000000
      8584        70  POPS      H4Y            69.4716096730       61.5516108530       57.7376598156  MEMB      64              0.0000000000
      8585        70  POPS      C35            69.0903106260       60.9134992197       55.6764987150  MEMB      64              0.0000000000
      8586        70  POPS      H5X            70.1708689429       60.6567455557       55.5809111183  MEMB      64              0.0000000000
      8587        70  POPS      H5Y            68.9268813613       61.9242696185       55.2485375284  MEMB      64              0.0000000000
      8588        70  POPS      C36            68.3079698371       59.8799220485       54.8600981441  MEMB      64              0.0000000000
      8589        70  POPS      H6X            67.2274764360       59.8907024497       55.1186360259  MEMB      64              0.0000000000
      8590        70  POPS      H6Y            68.6808558418       58.8638736131       55.1176376254  MEMB      64              0.0000000000
      8591        70  POPS      C37            68.4615904138       60.1485955869       53.3595694682  MEMB      64              0.0000000000
      8592        70  POPS      H7X            69.5040336776       60.4807755505       53.1563077837  MEMB      64              0.0000000000
      8593        70  POPS      H7Y            67.7687686577       60.9764703475       53.1096518273  MEMB      64              0.0000000000
      8594        70  POPS      C38            68.1334077277       58.9256335723       52.5043967422  MEMB      64              0.0000000000
      8595        70  POPS      H8X            67.0550837316       58.7091002848       52.6360337668  MEMB      64              0.0000000000
      8596        70  POPS      H8Y            68.6874335302       58.0651024932       52.9338614668  MEMB      64              0.0000000000
      8597        70  POPS      C39            68.4590678978       59.0563401044       51.0036405047  MEMB      64              0.0000000000
      8598        70  POPS      H9X            68.9033547432       58.0978267455       50.6526261404  MEMB      64              0.0000000000
      8599        70  POPS      H9Y            69.2068959751       59.8557765059       50.8208702291  MEMB      64              0.0000000000
      8600        70  POPS      C310           67.1911673468       59.2777448932       50.1770838350  MEMB      64              0.0000000000
      8601        70  POPS      H10X           66.7354810543       60.2499356720       50.4710363262  MEMB      64              0.0000000000
      8602        70  POPS      H10Y           66.4981295277       58.4683177960       50.4704940049  MEMB      64              0.0000000000
      8603        70  POPS      C311           67.3457843517       59.1981564352       48.6507993072  MEMB      64              0.0000000000
      8604        70  POPS      H11X           68.3579876101       59.5312721479       48.3385994463  MEMB      64              0.0000000000
      8605        70  POPS      H11Y           66.5969480475       59.8954503485       48.2107921802  MEMB      64              0.0000000000
      8606        70  POPS      C312           67.0088829436       57.8162902934       48.0683068999  MEMB      64              0.0000000000
      8607        70  POPS      H12X           65.9910733544       57.5257076618       48.4182619534  MEMB      64              0.0000000000
      8608        70  POPS      H12Y           67.7147870117       57.0510846733       48.4590218321  MEMB      64              0.0000000000
      8609        70  POPS      C313           67.0044614807       57.8024040912       46.5294814553  MEMB      64              0.0000000000
      8610        70  POPS      H13X           66.8328062095       58.8274644683       46.1332038234  MEMB      64              0.0000000000
      8611        70  POPS      H13Y           66.1591249382       57.1642522688       46.1822694991  MEMB      64              0.0000000000
      8612        70  POPS      C314           68.2994960536       57.2171903538       45.9581863292  MEMB      64              0.0000000000
      8613        70  POPS      H14X           68.4477181370       56.2256268697       46.4405611805  MEMB      64              0.0000000000
      8614        70  POPS      H14Y           69.1594178262       57.8672411750       46.2348439769  MEMB      64              0.0000000000
      8615        70  POPS      C315           68.2869584799       57.0158310496       44.4379621444  MEMB      64              0.0000000000
      8616        70  POPS      H15X           67.2447332311       56.8361413277       44.0904813030  MEMB      64              0.0000000000
      8617        70  POPS      H15Y           68.8720659217       56.0986339545       44.1927808800  MEMB      64              0.0000000000
      8618        70  POPS      C316           68.9106827941       58.1936960099       43.6916826839  MEMB      64              0.0000000000
      8619        70  POPS      H16X           68.7873830065       58.0796249310       42.5938130064  MEMB      64              0.0000000000
      8620        70  POPS      H16Y           69.9972407952       58.2622087015       43.9145285860  MEMB      64              0.0000000000
      8621        70  POPS      H16Z           68.4322260787       59.1463526828       44.0050054222  MEMB      64              0.0000000000
      8622        71  POPC      N               2.6263801934        3.2422982099       62.0773131189  MEMB      65              0.0000000000
      8623        71  POPC      C12             1.6150972509        2.8035018147       63.1249982096  MEMB      65              0.0000000000
      8624        71  POPC      H12A            0.7871938035        3.4962439793       63.1691163447  MEMB      65              0.0000000000
      8625        71  POPC      H12B            2.1166104664        2.7936403555       64.0869889939  MEMB      65              0.0000000000
      8626        71  POPC      C13             1.9034866134        3.5316259354       60.8188961860  MEMB      65              0.0000000000
      8627        71  POPC      H13A            2.5735601506        3.5589935941       59.9733967206  MEMB      65              0.0000000000
      8628        71  POPC      H13B            1.2411097325        2.6751252708       60.6007192453  MEMB      65              0.0000000000
      8629        71  POPC      H13C            1.2670682229        4.3905617692       60.8537577975  MEMB      65              0.0000000000
      8630        71  POPC      C14             3.4017871141        4.4185206264       62.5280011501  MEMB      65              0.0000000000
      8631        71  POPC      H14A            3.9172309267        4.1635353458       63.4509874478  MEMB      65              0.0000000000
      8632        71  POPC      H14B            4.1511864135        4.6596165279       61.7853304679  MEMB      65              0.0000000000
      8633        71  POPC      H14C            2.7466350852        5.2636207233       62.6826273772  MEMB      65              0.0000000000
      8634        71  POPC      C15             3.5430700969        2.0904708470       61.7877419562  MEMB      65              0.0000000000
      8635        71  POPC      H15A            4.0292321689        1.6950048482       62.6688889342  MEMB      65              0.0000000000
      8636        71  POPC      H15B            4.2855345983        2.3154999340       61.0385264605  MEMB      65              0.0000000000
      8637        71  POPC      H15C            2.9576064366        1.2557173486       61.3743819635  MEMB      65              0.0000000000
      8638        71  POPC      C11             0.9973020288        1.3986772753       62.9288377353  MEMB      65              0.0000000000
      8639        71  POPC      H11A            0.1672150425        1.2423540695       63.6521586786  MEMB      65              0.0000000000
      8640        71  POPC      H11B            1.8213234751        0.7056447262       63.2025673366  MEMB      65              0.0000000000
      8641        71  POPC      P               0.7184227489       -0.2930490676       61.0218688199  MEMB      65              0.0000000000
      8642        71  POPC      O13            -0.1001176406       -1.1912081663       61.8793454552  MEMB      65              0.0000000000
      8643        71  POPC      O14             2.1731704318       -0.5180561933       60.9839116931  MEMB      65              0.0000000000
      8644        71  POPC      O12             0.5204974971        1.1752945794       61.5966007710  MEMB      65              0.0000000000
      8645        71  POPC      O11             0.1764915585       -0.1181375282       59.5162810494  MEMB      65              0.0000000000
      8646        71  POPC      C1             -1.1375724853        0.4032267328       59.2187767356  MEMB      65              0.0000000000
      8647        71  POPC      HA             -1.6174121852        0.8750908500       60.1095126161  MEMB      65              0.0000000000
      8648        71  POPC      HB             -1.7887425544       -0.4463850829       58.9277255318  MEMB      65              0.0000000000
      8649        71  POPC      C2             -1.3089558517        1.4491459066       58.0273496430  MEMB      65              0.0000000000
      8650        71  POPC      HS             -2.4160277850        1.5430895313       57.9083958042  MEMB      65              0.0000000000
      8651        71  POPC      O21            -0.7042343826        1.0481172537       56.7735633155  MEMB      65              0.0000000000
      8652        71  POPC      C21            -1.1866505226        1.6893690757       55.6863704726  MEMB      65              0.0000000000
      8653        71  POPC      O22            -2.1148516547        2.4697630708       55.6951508488  MEMB      65              0.0000000000
      8654        71  POPC      C22            -0.4031688626        1.2821285374       54.4314777915  MEMB      65              0.0000000000
      8655        71  POPC      H2R             0.2096109487        2.1515521503       54.1185722987  MEMB      65              0.0000000000
      8656        71  POPC      H2S            -1.1524980188        1.0722511516       53.6421262221  MEMB      65              0.0000000000
      8657        71  POPC      C3             -0.7488871318        2.8497962564       58.3938026919  MEMB      65              0.0000000000
      8658        71  POPC      HX             -1.1403878457        3.1014254171       59.4036109085  MEMB      65              0.0000000000
      8659        71  POPC      HY             -1.1493132292        3.6158545720       57.6915142554  MEMB      65              0.0000000000
      8660        71  POPC      O31             0.6854527259        2.8461656128       58.4478930494  MEMB      65              0.0000000000
      8661        71  POPC      C31             1.3653618609        3.1846167868       57.3575619992  MEMB      65              0.0000000000
      8662        71  POPC      O32             0.8951801449        3.6871887528       56.3550575828  MEMB      65              0.0000000000
      8663        71  POPC      C32             2.8477829084        3.0448904266       57.6908313318  MEMB      65              0.0000000000
      8664        71  POPC      H2X             2.9440750595        2.4035523189       58.5942924885  MEMB      65              0.0000000000
      8665        71  POPC      H2Y             3.2542524331        4.0521228978       57.9087570285  MEMB      65              0.0000000000
      8666        71  POPC      C23             0.4835940630        0.0395974238       54.6545112602  MEMB      65              0.0000000000
      8667        71  POPC      H3R            -0.1418872127       -0.7622581359       55.1055231935  MEMB      65              0.0000000000
      8668        71  POPC      H3S             1.2943921688        0.2626643254       55.3851200460  MEMB      65              0.0000000000
      8669        71  POPC      C24             1.1002198805       -0.5435198681       53.3834290077  MEMB      65              0.0000000000
      8670        71  POPC      H4R             1.9502771241        0.0980171961       53.0786019777  MEMB      65              0.0000000000
      8671        71  POPC      H4S             0.3762891321       -0.5594389243       52.5428210700  MEMB      65              0.0000000000
      8672        71  POPC      C25             1.6272429789       -1.9522752492       53.6600795135  MEMB      65              0.0000000000
      8673        71  POPC      H5R             0.8051215603       -2.6938752601       53.7457938943  MEMB      65              0.0000000000
      8674        71  POPC      H5S             2.1292210802       -1.8880922412       54.6520783436  MEMB      65              0.0000000000
      8675        71  POPC      C26             2.7023639815       -2.4282073551       52.6844426163  MEMB      65              0.0000000000
      8676        71  POPC      H6R             3.3508656784       -3.1301599134       53.2587056294  MEMB      65              0.0000000000
      8677        71  POPC      H6S             3.3269669546       -1.5727168837       52.3623022829  MEMB      65              0.0000000000
      8678        71  POPC      C27             2.2049810768       -3.2109726750       51.4733145077  MEMB      65              0.0000000000
      8679        71  POPC      H7R             1.2033840943       -3.6420441590       51.7010022842  MEMB      65              0.0000000000
      8680        71  POPC      H7S             2.9220065318       -4.0555915793       51.3249405578  MEMB      65              0.0000000000
      8681        71  POPC      C28             2.1486577817       -2.4025511930       50.1804612093  MEMB      65              0.0000000000
      8682        71  POPC      H8R             3.1401242831       -1.9583831706       49.9491547348  MEMB      65              0.0000000000
      8683        71  POPC      H8S             1.4299825884       -1.5628149587       50.3087102452  MEMB      65              0.0000000000
      8684        71  POPC      C29             1.7447226529       -3.3843302969       49.1160263081  MEMB      65              0.0000000000
      8685        71  POPC      H91             2.4980049832       -4.1491900342       48.8726984003  MEMB      65              0.0000000000
      8686        71  POPC      C210            0.5536741243       -3.4201780032       48.5099667685  MEMB      65              0.0000000000
      8687        71  POPC      H101            0.3763258046       -4.1583358175       47.7134641690  MEMB      65              0.0000000000
      8688        71  POPC      C211           -0.5844988213       -2.4774401907       48.7830425005  MEMB      65              0.0000000000
      8689        71  POPC      H11R           -0.6351358063       -2.1854440793       49.8557952892  MEMB      65              0.0000000000
      8690        71  POPC      H11S           -1.5531994534       -2.9641872784       48.5340137524  MEMB      65              0.0000000000
      8691        71  POPC      C212           -0.3955832285       -1.2246719757       47.9104210211  MEMB      65              0.0000000000
      8692        71  POPC      H12R            0.5015570959       -0.6552930404       48.2378467729  MEMB      65              0.0000000000
      8693        71  POPC      H12S           -1.2774179608       -0.5593497185       48.0472817284  MEMB      65              0.0000000000
      8694        71  POPC      C213           -0.2714898698       -1.5966691378       46.4265137134  MEMB      65              0.0000000000
      8695        71  POPC      H13R           -1.2264500431       -2.1159681875       46.1924165273  MEMB      65              0.0000000000
      8696        71  POPC      H13S            0.5658047841       -2.3016453063       46.2377732699  MEMB      65              0.0000000000
      8697        71  POPC      C214           -0.0768192774       -0.4295895766       45.4595886225  MEMB      65              0.0000000000
      8698        71  POPC      H14R           -0.8548087915        0.3268902536       45.6636002812  MEMB      65              0.0000000000
      8699        71  POPC      H14S           -0.2203311108       -0.7898082067       44.4179950803  MEMB      65              0.0000000000
      8700        71  POPC      C215            1.3310779580        0.1742116683       45.4559729090  MEMB      65              0.0000000000
      8701        71  POPC      H15R            2.0263289121       -0.5955456566       45.0671379024  MEMB      65              0.0000000000
      8702        71  POPC      H15S            1.6573356897        0.3726690488       46.5008808804  MEMB      65              0.0000000000
      8703        71  POPC      C216            1.4419201311        1.4882197648       44.6507066013  MEMB      65              0.0000000000
      8704        71  POPC      H16R            2.4907716681        1.6994729321       44.3723337333  MEMB      65              0.0000000000
      8705        71  POPC      H16S            1.1540555167        2.2868976001       45.3613827925  MEMB      65              0.0000000000
      8706        71  POPC      C217            0.5249774013        1.6752695584       43.4229909909  MEMB      65              0.0000000000
      8707        71  POPC      H17R            0.3196825357        2.7683515760       43.3531258472  MEMB      65              0.0000000000
      8708        71  POPC      H17S           -0.4506586964        1.1786666445       43.5674930947  MEMB      65              0.0000000000
      8709        71  POPC      C218            1.0765842695        1.2458629790       42.0711013057  MEMB      65              0.0000000000
      8710        71  POPC      H18R            1.4577431805        0.2032884320       42.1099292223  MEMB      65              0.0000000000
      8711        71  POPC      H18S            1.8729548666        1.9489070663       41.7628677258  MEMB      65              0.0000000000
      8712        71  POPC      H18T            0.2973409100        1.2995630089       41.2882378355  MEMB      65              0.0000000000
      8713        71  POPC      C33             3.6738099525        2.3587965579       56.5942781745  MEMB      65              0.0000000000
      8714        71  POPC      H3X             3.2039258861        1.3985765034       56.2895037610  MEMB      65              0.0000000000
      8715        71  POPC      H3Y             4.6521397154        2.1093466209       57.0679594556  MEMB      65              0.0000000000
      8716        71  POPC      C34             3.9798622524        3.2251507901       55.3700317152  MEMB      65              0.0000000000
      8717        71  POPC      H4X             4.3922353079        4.1987132590       55.7236196745  MEMB      65              0.0000000000
      8718        71  POPC      H4Y             3.0495518351        3.4463713233       54.8057763574  MEMB      65              0.0000000000
      8719        71  POPC      C35             5.0390398024        2.5713609202       54.4628048849  MEMB      65              0.0000000000
      8720        71  POPC      H5X             5.8887310096        2.2619588680       55.1122918133  MEMB      65              0.0000000000
      8721        71  POPC      H5Y             5.4208489434        3.3074027876       53.7250895247  MEMB      65              0.0000000000
      8722        71  POPC      C36             4.6358302101        1.2807520611       53.7418018197  MEMB      65              0.0000000000
      8723        71  POPC      H6X             3.8834814194        0.7177461292       54.3322006379  MEMB      65              0.0000000000
      8724        71  POPC      H6Y             5.5539852564        0.6512016059       53.6792901553  MEMB      65              0.0000000000
      8725        71  POPC      C37             4.1635140586        1.4972694213       52.3061010795  MEMB      65              0.0000000000
      8726        71  POPC      H7X             3.8838153525        0.5132299242       51.8698037982  MEMB      65              0.0000000000
      8727        71  POPC      H7Y             5.0096204809        1.9013754513       51.7057689070  MEMB      65              0.0000000000
      8728        71  POPC      C38             2.9703225678        2.4468256106       52.2199566334  MEMB      65              0.0000000000
      8729        71  POPC      H8X             3.3086047966        3.4872607116       52.4265993031  MEMB      65              0.0000000000
      8730        71  POPC      H8Y             2.2244505887        2.1812319952       53.0019090363  MEMB      65              0.0000000000
      8731        71  POPC      C39             2.3028681008        2.3863505047       50.8502567563  MEMB      65              0.0000000000
      8732        71  POPC      H9X             1.4134560784        3.0497187306       50.8997343923  MEMB      65              0.0000000000
      8733        71  POPC      H9Y             1.9287461834        1.3575988405       50.6467390891  MEMB      65              0.0000000000
      8734        71  POPC      C310            3.2555380006        2.7919325326       49.7132122990  MEMB      65              0.0000000000
      8735        71  POPC      H10X            4.0924235433        2.0600941121       49.6504680345  MEMB      65              0.0000000000
      8736        71  POPC      H10Y            3.6967106567        3.7912857877       49.9312252534  MEMB      65              0.0000000000
      8737        71  POPC      C311            2.5354954459        2.8294030159       48.3638590192  MEMB      65              0.0000000000
      8738        71  POPC      H11X            2.0410593216        1.8442502998       48.2209492998  MEMB      65              0.0000000000
      8739        71  POPC      H11Y            3.2688830028        2.9565286953       47.5355392143  MEMB      65              0.0000000000
      8740        71  POPC      C312            1.5069297412        3.9643388076       48.3252454226  MEMB      65              0.0000000000
      8741        71  POPC      H12X            1.9946118428        4.8589074594       47.8717803295  MEMB      65              0.0000000000
      8742        71  POPC      H12Y            1.2210108881        4.2720504825       49.3499110239  MEMB      65              0.0000000000
      8743        71  POPC      C313            0.2113733736        3.6762809089       47.5598510300  MEMB      65              0.0000000000
      8744        71  POPC      H13X            0.4770103803        3.7405313878       46.4867188500  MEMB      65              0.0000000000
      8745        71  POPC      H13Y           -0.5197047740        4.4766638123       47.8169590475  MEMB      65              0.0000000000
      8746        71  POPC      C314           -0.5198390736        2.3497625881       47.7286365114  MEMB      65              0.0000000000
      8747        71  POPC      H14X           -0.6220219501        2.0858513634       48.8022417910  MEMB      65              0.0000000000
      8748        71  POPC      H14Y            0.0784976926        1.5527824920       47.2535913618  MEMB      65              0.0000000000
      8749        71  POPC      C315           -1.9198249930        2.3877665071       47.0798145394  MEMB      65              0.0000000000
      8750        71  POPC      H15X           -2.5493613750        3.0627096174       47.6971004479  MEMB      65              0.0000000000
      8751        71  POPC      H15Y           -2.3394335223        1.3653297308       47.1720714305  MEMB      65              0.0000000000
      8752        71  POPC      C316           -2.0526560581        2.8408734109       45.6119376583  MEMB      65              0.0000000000
      8753        71  POPC      H16X           -3.1274742105        2.9419116158       45.3425463630  MEMB      65              0.0000000000
      8754        71  POPC      H16Y           -1.6317388864        2.0958139459       44.9176669205  MEMB      65              0.0000000000
      8755        71  POPC      H16Z           -1.5722013026        3.8170889038       45.4157568621  MEMB      65              0.0000000000
      8756        72  POPS      N              37.9484983626       36.1681156457       21.7327511955  MEMB      66              0.0000000000
      8757        72  POPS      HN1            38.3749090562       35.8824715001       20.8288127952  MEMB      66              0.0000000000
      8758        72  POPS      HN2            37.2195064961       35.5150149672       22.0737154587  MEMB      66              0.0000000000
      8759        72  POPS      HN3            37.5573189003       37.1408740958       21.6243483396  MEMB      66              0.0000000000
      8760        72  POPS      C12            39.0007802903       36.2753892604       22.7892526515  MEMB      66              0.0000000000
      8761        72  POPS      H12A           39.8180770485       36.8158321726       22.3380928026  MEMB      66              0.0000000000
      8762        72  POPS      C13            39.6314900530       34.9651093011       23.2593025162  MEMB      66              0.0000000000
      8763        72  POPS      O13A           39.2828587037       33.8930823109       22.6911047632  MEMB      66              0.0000000000
      8764        72  POPS      O13B           40.5423406388       35.0440480333       24.1283414819  MEMB      66              0.0000000000
      8765        72  POPS      C11            38.4573443699       37.0808482938       24.0101541074  MEMB      66              0.0000000000
      8766        72  POPS      H11A           39.3292563785       37.4153594546       24.6219689295  MEMB      66              0.0000000000
      8767        72  POPS      H11B           37.8521666068       36.4081797542       24.6577528873  MEMB      66              0.0000000000
      8768        72  POPS      P              38.3216081359       39.2986703957       22.6712906488  MEMB      66              0.0000000000
      8769        72  POPS      O13            37.6035672427       39.0257484344       21.4090072395  MEMB      66              0.0000000000
      8770        72  POPS      O14            39.7806900905       39.1111207651       22.6722533993  MEMB      66              0.0000000000
      8771        72  POPS      O12            37.6516205277       38.2034379175       23.6219132075  MEMB      66              0.0000000000
      8772        72  POPS      O11            37.8969113463       40.6895387073       23.2452130502  MEMB      66              0.0000000000
      8773        72  POPS      C1             36.6491180339       40.8937718291       23.8930637586  MEMB      66              0.0000000000
      8774        72  POPS      HA             35.8400054634       40.3603652798       23.3482610284  MEMB      66              0.0000000000
      8775        72  POPS      HB             36.4197200821       41.9809369250       23.8517299235  MEMB      66              0.0000000000
      8776        72  POPS      C2             36.6320573880       40.4754935035       25.3968645128  MEMB      66              0.0000000000
      8777        72  POPS      HS             36.5872451842       41.4168537364       25.9933184444  MEMB      66              0.0000000000
      8778        72  POPS      O21            37.8209260654       39.7156826839       25.7095120867  MEMB      66              0.0000000000
      8779        72  POPS      C21            38.2419718999       39.8081784974       26.9297652324  MEMB      66              0.0000000000
      8780        72  POPS      O22            37.6630306538       40.3964032416       27.8285700845  MEMB      66              0.0000000000
      8781        72  POPS      C22            39.5835972502       39.0898816264       27.1431881157  MEMB      66              0.0000000000
      8782        72  POPS      H2R            40.3679460248       39.6335010019       26.5813592798  MEMB      66              0.0000000000
      8783        72  POPS      H2S            39.5027136899       38.0509833830       26.7692459145  MEMB      66              0.0000000000
      8784        72  POPS      C3             35.3314437442       39.6596021380       25.6699618078  MEMB      66              0.0000000000
      8785        72  POPS      HX             35.3330490793       38.7580382279       25.0144130842  MEMB      66              0.0000000000
      8786        72  POPS      HY             34.4780904063       40.2928580358       25.3497184150  MEMB      66              0.0000000000
      8787        72  POPS      O31            35.1549246039       39.3684496714       27.0647042764  MEMB      66              0.0000000000
      8788        72  POPS      C31            35.4232966766       38.1275444286       27.4447520666  MEMB      66              0.0000000000
      8789        72  POPS      O32            35.5595959837       37.1637847875       26.7154322009  MEMB      66              0.0000000000
      8790        72  POPS      C32            35.6635100751       38.1358873234       28.9506944610  MEMB      66              0.0000000000
      8791        72  POPS      H2X            34.8330598580       38.6763592674       29.4329195175  MEMB      66              0.0000000000
      8792        72  POPS      H2Y            36.5762899938       38.7480767672       29.1083996892  MEMB      66              0.0000000000
      8793        72  POPS      C23            39.8312987598       39.1305405866       28.6665268580  MEMB      66              0.0000000000
      8794        72  POPS      H3R            38.9716881369       38.6266693479       29.1736678171  MEMB      66              0.0000000000
      8795        72  POPS      H3S            39.8270208133       40.2031981850       28.9646880646  MEMB      66              0.0000000000
      8796        72  POPS      C24            41.0960194863       38.5117733051       29.2550421547  MEMB      66              0.0000000000
      8797        72  POPS      H4R            42.0013952739       39.0556566414       28.9103144855  MEMB      66              0.0000000000
      8798        72  POPS      H4S            41.1902055773       37.4491762598       28.9465234743  MEMB      66              0.0000000000
      8799        72  POPS      C25            41.0136354982       38.5518312917       30.7957105221  MEMB      66              0.0000000000
      8800        72  POPS      H5R            42.0157985240       38.3826476582       31.2396387392  MEMB      66              0.0000000000
      8801        72  POPS      H5S            40.3544968833       37.7127411859       31.1176673774  MEMB      66              0.0000000000
      8802        72  POPS      C26            40.4075103595       39.8608123864       31.3420931396  MEMB      66              0.0000000000
      8803        72  POPS      H6R            39.3288700054       39.9043330464       31.0668357293  MEMB      66              0.0000000000
      8804        72  POPS      H6S            40.9210596459       40.7253121354       30.8731213923  MEMB      66              0.0000000000
      8805        72  POPS      C27            40.4762143872       40.0410715981       32.8556470649  MEMB      66              0.0000000000
      8806        72  POPS      H7R            39.8584820985       40.9323107702       33.1208533265  MEMB      66              0.0000000000
      8807        72  POPS      H7S            41.5275710861       40.2797547238       33.1306407946  MEMB      66              0.0000000000
      8808        72  POPS      C28            39.9529901945       38.8147325691       33.6062479907  MEMB      66              0.0000000000
      8809        72  POPS      H8R            40.4999315451       37.8976279834       33.3017171107  MEMB      66              0.0000000000
      8810        72  POPS      H8S            38.8897000691       38.6542733497       33.3146971277  MEMB      66              0.0000000000
      8811        72  POPS      C29            40.1532095029       39.0495808627       35.0755918451  MEMB      66              0.0000000000
      8812        72  POPS      H91            41.1914760826       39.1674430546       35.4064664597  MEMB      66              0.0000000000
      8813        72  POPS      C210           39.1720397083       39.1722955638       35.9634969592  MEMB      66              0.0000000000
      8814        72  POPS      H101           39.4057815332       39.3306987280       37.0279097338  MEMB      66              0.0000000000
      8815        72  POPS      C211           37.7276842825       39.0870324060       35.5993344875  MEMB      66              0.0000000000
      8816        72  POPS      H11R           37.1917891464       39.0834925212       36.5533289628  MEMB      66              0.0000000000
      8817        72  POPS      H11S           37.5369015189       38.1139960490       35.1051608110  MEMB      66              0.0000000000
      8818        72  POPS      C212           37.0925985397       40.2232111791       34.7667275566  MEMB      66              0.0000000000
      8819        72  POPS      H12R           37.8035546887       40.6242705841       34.0134354023  MEMB      66              0.0000000000
      8820        72  POPS      H12S           36.8397100092       41.0486264142       35.4611441544  MEMB      66              0.0000000000
      8821        72  POPS      C213           35.7883665346       39.8075868165       34.0653604813  MEMB      66              0.0000000000
      8822        72  POPS      H13R           36.0741561072       39.2693216561       33.1342429335  MEMB      66              0.0000000000
      8823        72  POPS      H13S           35.2415289307       40.7258109917       33.7565457242  MEMB      66              0.0000000000
      8824        72  POPS      C214           34.8744863645       38.8989941702       34.9109276542  MEMB      66              0.0000000000
      8825        72  POPS      H14R           35.3661529504       37.9146674506       35.0063939810  MEMB      66              0.0000000000
      8826        72  POPS      H14S           33.9059097602       38.7381485484       34.3851020407  MEMB      66              0.0000000000
      8827        72  POPS      C215           34.6062426282       39.3536937608       36.3525263163  MEMB      66              0.0000000000
      8828        72  POPS      H15R           33.6594135536       39.9154501493       36.3304296266  MEMB      66              0.0000000000
      8829        72  POPS      H15S           35.3596028502       40.0747909553       36.7262116314  MEMB      66              0.0000000000
      8830        72  POPS      C216           34.4937630595       38.1810538838       37.3511078631  MEMB      66              0.0000000000
      8831        72  POPS      H16R           34.0405607416       37.3174345228       36.8426071701  MEMB      66              0.0000000000
      8832        72  POPS      H16S           33.7686418385       38.4588593724       38.1366468982  MEMB      66              0.0000000000
      8833        72  POPS      C217           35.8071628047       37.7851080715       38.0458250920  MEMB      66              0.0000000000
      8834        72  POPS      H17R           36.3279666462       38.7164807279       38.3789968893  MEMB      66              0.0000000000
      8835        72  POPS      H17S           36.4726581781       37.2755988087       37.3101236872  MEMB      66              0.0000000000
      8836        72  POPS      C218           35.6389821955       36.8961311496       39.2733148281  MEMB      66              0.0000000000
      8837        72  POPS      H18R           34.6904357649       36.3442190324       39.1905127589  MEMB      66              0.0000000000
      8838        72  POPS      H18S           35.6221793717       37.5239605173       40.1934676929  MEMB      66              0.0000000000
      8839        72  POPS      H18T           36.4805320358       36.1763333686       39.3563418494  MEMB      66              0.0000000000
      8840        72  POPS      C33            35.9245937946       36.7451974751       29.5748126769  MEMB      66              0.0000000000
      8841        72  POPS      H3X            36.5551764442       36.1260397444       28.8927355529  MEMB      66              0.0000000000
      8842        72  POPS      H3Y            34.9557360249       36.2250115024       29.7046071639  MEMB      66              0.0000000000
      8843        72  POPS      C34            36.6821426096       36.9292305364       30.8984471383  MEMB      66              0.0000000000
      8844        72  POPS      H4X            36.1918604991       37.7790957164       31.4241498837  MEMB      66              0.0000000000
      8845        72  POPS      H4Y            37.7197216937       37.2765118950       30.6760486567  MEMB      66              0.0000000000
      8846        72  POPS      C35            36.7566971147       35.7117641755       31.8430973177  MEMB      66              0.0000000000
      8847        72  POPS      H5X            37.6657208558       35.1124794334       31.6034220654  MEMB      66              0.0000000000
      8848        72  POPS      H5Y            35.8745006521       35.0622586573       31.6882489263  MEMB      66              0.0000000000
      8849        72  POPS      C36            36.8268574086       36.1797820831       33.3085084356  MEMB      66              0.0000000000
      8850        72  POPS      H6X            36.1569198566       37.0682662908       33.3490641479  MEMB      66              0.0000000000
      8851        72  POPS      H6Y            37.8467247567       36.5446199691       33.5599694667  MEMB      66              0.0000000000
      8852        72  POPS      C37            36.3003333562       35.2228485733       34.3918606629  MEMB      66              0.0000000000
      8853        72  POPS      H7X            35.5773065817       34.5125057707       33.9519528736  MEMB      66              0.0000000000
      8854        72  POPS      H7Y            35.7850961109       35.8716174245       35.1394312161  MEMB      66              0.0000000000
      8855        72  POPS      C38            37.3329554302       34.4456767423       35.2165241325  MEMB      66              0.0000000000
      8856        72  POPS      H8X            38.1166062278       35.1483709625       35.5862673504  MEMB      66              0.0000000000
      8857        72  POPS      H8Y            37.8383018282       33.6914202019       34.5749461920  MEMB      66              0.0000000000
      8858        72  POPS      C39            36.6576755537       33.7693946687       36.4284033241  MEMB      66              0.0000000000
      8859        72  POPS      H9X            35.7227430056       33.2863473633       36.0803975920  MEMB      66              0.0000000000
      8860        72  POPS      H9Y            36.3898637177       34.5587001058       37.1658451400  MEMB      66              0.0000000000
      8861        72  POPS      C310           37.4975734434       32.6770143996       37.1082501964  MEMB      66              0.0000000000
      8862        72  POPS      H10X           37.6471540807       31.8626974192       36.3733425516  MEMB      66              0.0000000000
      8863        72  POPS      H10Y           36.9546545294       32.2487538179       37.9782452447  MEMB      66              0.0000000000
      8864        72  POPS      C311           38.8746376769       33.1362255029       37.5992118294  MEMB      66              0.0000000000
      8865        72  POPS      H11X           39.4173898978       33.6262683320       36.7616386440  MEMB      66              0.0000000000
      8866        72  POPS      H11Y           39.4803876274       32.2525574275       37.9053345705  MEMB      66              0.0000000000
      8867        72  POPS      C312           38.7788023851       34.0938597161       38.7870751896  MEMB      66              0.0000000000
      8868        72  POPS      H12X           38.7737625851       33.5159010974       39.7385268369  MEMB      66              0.0000000000
      8869        72  POPS      H12Y           37.8234820660       34.6541392296       38.7391360335  MEMB      66              0.0000000000
      8870        72  POPS      C313           39.9032844657       35.1283114003       38.7905317721  MEMB      66              0.0000000000
      8871        72  POPS      H13X           39.9113697513       35.6709680785       37.8187332270  MEMB      66              0.0000000000
      8872        72  POPS      H13Y           40.8812187097       34.6094555255       38.9042909447  MEMB      66              0.0000000000
      8873        72  POPS      C314           39.7098587253       36.1393187082       39.9183757297  MEMB      66              0.0000000000
      8874        72  POPS      H14X           39.7096859557       35.5835820943       40.8836905445  MEMB      66              0.0000000000
      8875        72  POPS      H14Y           38.7187307727       36.6355236692       39.8303269259  MEMB      66              0.0000000000
      8876        72  POPS      C315           40.7981069080       37.2081964972       39.9482477433  MEMB      66              0.0000000000
      8877        72  POPS      H15X           40.6435714624       37.9416473570       39.1274975992  MEMB      66              0.0000000000
      8878        72  POPS      H15Y           41.7923232721       36.7410933261       39.7693099648  MEMB      66              0.0000000000
      8879        72  POPS      C316           40.8178927000       37.9096723738       41.2975673997  MEMB      66              0.0000000000
      8880        72  POPS      H16X           40.0050815248       38.6638442642       41.3650079594  MEMB      66              0.0000000000
      8881        72  POPS      H16Y           41.7994768250       38.4016695815       41.4557471495  MEMB      66              0.0000000000
      8882        72  POPS      H16Z           40.6694736951       37.1677686653       42.1125138349  MEMB      66              0.0000000000
      8883        73  POPC      N              27.6930784007       34.4301637918       24.3116766866  MEMB      67              0.0000000000
      8884        73  POPC      C12            26.9560143740       34.1246013194       23.0142520887  MEMB      67              0.0000000000
      8885        73  POPC      H12A           27.5942417503       34.3675143071       22.1711071648  MEMB      67              0.0000000000
      8886        73  POPC      H12B           26.1592681610       34.8541201359       22.9173903567  MEMB      67              0.0000000000
      8887        73  POPC      C13            26.6985650429       34.3680210732       25.4297437491  MEMB      67              0.0000000000
      8888        73  POPC      H13A           25.9785125038       35.1788270148       25.3769095556  MEMB      67              0.0000000000
      8889        73  POPC      H13B           26.1371903351       33.4361035092       25.3971084542  MEMB      67              0.0000000000
      8890        73  POPC      H13C           27.1954471219       34.4227430418       26.3884441791  MEMB      67              0.0000000000
      8891        73  POPC      C14            28.7593477704       33.4021958627       24.4975662532  MEMB      67              0.0000000000
      8892        73  POPC      H14A           29.3012771956       33.4966673780       25.4249717862  MEMB      67              0.0000000000
      8893        73  POPC      H14B           28.2736131595       32.4219673496       24.4941595755  MEMB      67              0.0000000000
      8894        73  POPC      H14C           29.4470686772       33.4003642580       23.6596127666  MEMB      67              0.0000000000
      8895        73  POPC      C15            28.2649724894       35.8233307793       24.2179116556  MEMB      67              0.0000000000
      8896        73  POPC      H15A           27.4879218302       36.5427744268       23.9425536736  MEMB      67              0.0000000000
      8897        73  POPC      H15B           28.9856412709       35.8860733753       23.4071087180  MEMB      67              0.0000000000
      8898        73  POPC      H15C           28.7395528544       36.1707523633       25.1223985918  MEMB      67              0.0000000000
      8899        73  POPC      C11            26.3392971438       32.7193885484       22.7895271070  MEMB      67              0.0000000000
      8900        73  POPC      H11A           25.5753065432       32.8510811959       21.9840118419  MEMB      67              0.0000000000
      8901        73  POPC      H11B           25.8067277470       32.3737927043       23.7065601050  MEMB      67              0.0000000000
      8902        73  POPC      P              26.7888074221       30.2728535465       22.0717783902  MEMB      67              0.0000000000
      8903        73  POPC      O13            27.8891489967       29.6285937988       21.3049948699  MEMB      67              0.0000000000
      8904        73  POPC      O14            25.4512502108       30.3320221314       21.4246566758  MEMB      67              0.0000000000
      8905        73  POPC      O12            27.3201865220       31.7669997081       22.3740879321  MEMB      67              0.0000000000
      8906        73  POPC      O11            26.7883927706       29.8067126717       23.6039364725  MEMB      67              0.0000000000
      8907        73  POPC      C1             28.0903844621       29.7955942742       24.2218300685  MEMB      67              0.0000000000
      8908        73  POPC      HA             28.6752581957       30.7215349557       24.0251494242  MEMB      67              0.0000000000
      8909        73  POPC      HB             28.6628798514       28.9532768432       23.7789751553  MEMB      67              0.0000000000
      8910        73  POPC      C2             28.0806269776       29.6074556295       25.7770488169  MEMB      67              0.0000000000
      8911        73  POPC      HS             27.2194207828       28.9473527350       26.0319778707  MEMB      67              0.0000000000
      8912        73  POPC      O21            27.9897582149       30.9101888151       26.4274141195  MEMB      67              0.0000000000
      8913        73  POPC      C21            27.4449449876       30.9467089251       27.6538021366  MEMB      67              0.0000000000
      8914        73  POPC      O22            27.0597535864       29.9842001805       28.2878750025  MEMB      67              0.0000000000
      8915        73  POPC      C22            27.3221514742       32.4115282140       28.1046874140  MEMB      67              0.0000000000
      8916        73  POPC      H2R            26.5850009805       32.8509958974       27.4101904205  MEMB      67              0.0000000000
      8917        73  POPC      H2S            28.3056108960       32.9082849343       27.9852322287  MEMB      67              0.0000000000
      8918        73  POPC      C3             29.4068812017       28.8499779425       26.1389000967  MEMB      67              0.0000000000
      8919        73  POPC      HX             30.2857210704       29.4993793739       25.9103868798  MEMB      67              0.0000000000
      8920        73  POPC      HY             29.4844223380       27.9813613508       25.4503457539  MEMB      67              0.0000000000
      8921        73  POPC      O31            29.4070001189       28.3094075263       27.4705720322  MEMB      67              0.0000000000
      8922        73  POPC      C31            29.9965603518       29.0769832791       28.3804327203  MEMB      67              0.0000000000
      8923        73  POPC      O32            30.6831902783       30.0607507040       28.1585361895  MEMB      67              0.0000000000
      8924        73  POPC      C32            29.5877509042       28.5661428268       29.7613250287  MEMB      67              0.0000000000
      8925        73  POPC      H2X            29.8567288292       27.4962187593       29.8280666027  MEMB      67              0.0000000000
      8926        73  POPC      H2Y            28.4805075858       28.6249567800       29.8401307848  MEMB      67              0.0000000000
      8927        73  POPC      C23            26.7536225253       32.6792351197       29.5228295268  MEMB      67              0.0000000000
      8928        73  POPC      H3R            27.5675274031       32.5353568333       30.2621221485  MEMB      67              0.0000000000
      8929        73  POPC      H3S            25.9444208505       31.9584312540       29.7691176877  MEMB      67              0.0000000000
      8930        73  POPC      C24            26.1907201822       34.1143214516       29.6388979296  MEMB      67              0.0000000000
      8931        73  POPC      H4R            25.4143961910       34.2587896900       28.8537946171  MEMB      67              0.0000000000
      8932        73  POPC      H4S            27.0217427060       34.8261067039       29.4304902332  MEMB      67              0.0000000000
      8933        73  POPC      C25            25.5742699027       34.4836035195       31.0065569304  MEMB      67              0.0000000000
      8934        73  POPC      H5R            24.6620796353       33.8745267447       31.1673196943  MEMB      67              0.0000000000
      8935        73  POPC      H5S            25.2677987581       35.5541338260       30.9911810605  MEMB      67              0.0000000000
      8936        73  POPC      C26            26.5429451433       34.2520397987       32.1732203798  MEMB      67              0.0000000000
      8937        73  POPC      H6R            27.4152181822       34.9418534381       32.0698695197  MEMB      67              0.0000000000
      8938        73  POPC      H6S            26.9174204242       33.2169958029       32.0801733907  MEMB      67              0.0000000000
      8939        73  POPC      C27            25.9787968464       34.3741482413       33.6036182894  MEMB      67              0.0000000000
      8940        73  POPC      H7R            25.5566675029       35.3920460949       33.7452456986  MEMB      67              0.0000000000
      8941        73  POPC      H7S            26.8424731627       34.2876777230       34.3013282963  MEMB      67              0.0000000000
      8942        73  POPC      C28            24.9356551493       33.3101816145       34.0283668782  MEMB      67              0.0000000000
      8943        73  POPC      H8R            23.9754916270       33.6069440061       33.5582305266  MEMB      67              0.0000000000
      8944        73  POPC      H8S            24.7816189972       33.4216442541       35.1245017160  MEMB      67              0.0000000000
      8945        73  POPC      C29            25.2246254936       31.8671692965       33.6739629045  MEMB      67              0.0000000000
      8946        73  POPC      H91            25.2050562299       31.6527209560       32.5938191466  MEMB      67              0.0000000000
      8947        73  POPC      C210           25.5374246397       30.8489464505       34.4946882792  MEMB      67              0.0000000000
      8948        73  POPC      H101           25.7707162963       29.8695919755       34.0426733273  MEMB      67              0.0000000000
      8949        73  POPC      C211           25.6871416919       30.8984134126       35.9925849957  MEMB      67              0.0000000000
      8950        73  POPC      H11R           25.9387593862       31.9230319470       36.3464200387  MEMB      67              0.0000000000
      8951        73  POPC      H11S           26.5591156221       30.2619376645       36.2650371718  MEMB      67              0.0000000000
      8952        73  POPC      C212           24.5240565659       30.3336059171       36.8213734045  MEMB      67              0.0000000000
      8953        73  POPC      H12R           24.9548348160       29.9526611988       37.7783764628  MEMB      67              0.0000000000
      8954        73  POPC      H12S           24.0750100442       29.4662458288       36.2951349193  MEMB      67              0.0000000000
      8955        73  POPC      C213           23.4346430551       31.3567528394       37.1604751195  MEMB      67              0.0000000000
      8956        73  POPC      H13R           22.7280744892       31.4086499524       36.3014669843  MEMB      67              0.0000000000
      8957        73  POPC      H13S           23.8826698467       32.3669659184       37.2957852677  MEMB      67              0.0000000000
      8958        73  POPC      C214           22.6765430498       30.9865978882       38.4464858717  MEMB      67              0.0000000000
      8959        73  POPC      H14R           22.4752527740       29.8931975057       38.4376333127  MEMB      67              0.0000000000
      8960        73  POPC      H14S           21.7050030901       31.5270377983       38.4475691264  MEMB      67              0.0000000000
      8961        73  POPC      C215           23.4372432704       31.3724412334       39.7253452274  MEMB      67              0.0000000000
      8962        73  POPC      H15R           23.2382410903       32.4404404033       39.9436744721  MEMB      67              0.0000000000
      8963        73  POPC      H15S           24.5207779678       31.2772441151       39.5118868481  MEMB      67              0.0000000000
      8964        73  POPC      C216           23.1129151550       30.5354252373       40.9761421867  MEMB      67              0.0000000000
      8965        73  POPC      H16R           23.5050502840       29.5032365238       40.8268381607  MEMB      67              0.0000000000
      8966        73  POPC      H16S           22.0129915195       30.4658448051       41.1187040641  MEMB      67              0.0000000000
      8967        73  POPC      C217           23.7492217440       31.1241056506       42.2486477482  MEMB      67              0.0000000000
      8968        73  POPC      H17R           23.4274783422       32.1828224257       42.3691400750  MEMB      67              0.0000000000
      8969        73  POPC      H17S           24.8512135571       31.1236895298       42.1088584286  MEMB      67              0.0000000000
      8970        73  POPC      C218           23.4362273703       30.3547365176       43.5329996838  MEMB      67              0.0000000000
      8971        73  POPC      H18R           24.1419223977       30.6341265610       44.3464321170  MEMB      67              0.0000000000
      8972        73  POPC      H18S           23.5279752456       29.2615698877       43.3561209135  MEMB      67              0.0000000000
      8973        73  POPC      H18T           22.4064561074       30.5752537214       43.8830415170  MEMB      67              0.0000000000
      8974        73  POPC      C33            30.2389015378       29.3747858685       30.9008592094  MEMB      67              0.0000000000
      8975        73  POPC      H3X            31.1112525523       29.9672965416       30.5495237094  MEMB      67              0.0000000000
      8976        73  POPC      H3Y            30.6208079173       28.6533048303       31.6508782587  MEMB      67              0.0000000000
      8977        73  POPC      C34            29.2281639259       30.3005845396       31.5750665012  MEMB      67              0.0000000000
      8978        73  POPC      H4X            28.3292499052       29.7244993378       31.8836989685  MEMB      67              0.0000000000
      8979        73  POPC      H4Y            28.9036128228       31.0528803177       30.8257162670  MEMB      67              0.0000000000
      8980        73  POPC      C35            29.8028441786       31.0262674128       32.7889920664  MEMB      67              0.0000000000
      8981        73  POPC      H5X            30.6863189609       31.5815978039       32.4493339031  MEMB      67              0.0000000000
      8982        73  POPC      H5Y            30.0813439141       30.3207422817       33.5976644510  MEMB      67              0.0000000000
      8983        73  POPC      C36            28.8850193364       32.1098654232       33.3235840944  MEMB      67              0.0000000000
      8984        73  POPC      H6X            27.8649783099       31.7031447532       33.4524218234  MEMB      67              0.0000000000
      8985        73  POPC      H6Y            28.8573293918       32.9152753247       32.5550753738  MEMB      67              0.0000000000
      8986        73  POPC      C37            29.3516362998       32.7488688892       34.6310076237  MEMB      67              0.0000000000
      8987        73  POPC      H7X            28.8080218669       33.7153645116       34.7393920773  MEMB      67              0.0000000000
      8988        73  POPC      H7Y            30.4206254851       33.0129089113       34.5898920960  MEMB      67              0.0000000000
      8989        73  POPC      C38            29.0618897183       31.8999195357       35.8686865852  MEMB      67              0.0000000000
      8990        73  POPC      H8X            29.9082829900       31.2157822888       36.0610586611  MEMB      67              0.0000000000
      8991        73  POPC      H8Y            28.1863425342       31.2633994944       35.6596433415  MEMB      67              0.0000000000
      8992        73  POPC      C39            28.7710293056       32.7694500018       37.0969354359  MEMB      67              0.0000000000
      8993        73  POPC      H9X            27.6812948271       32.9116871144       37.2355541002  MEMB      67              0.0000000000
      8994        73  POPC      H9Y            29.1714309210       33.7901062519       36.8983045328  MEMB      67              0.0000000000
      8995        73  POPC      C310           29.4289380244       32.2562729327       38.3844163536  MEMB      67              0.0000000000
      8996        73  POPC      H10X           29.3408331259       33.0371826140       39.1747596296  MEMB      67              0.0000000000
      8997        73  POPC      H10Y           30.4965634012       32.1282135553       38.1858067285  MEMB      67              0.0000000000
      8998        73  POPC      C311           28.9287545706       30.9105540905       38.8793188005  MEMB      67              0.0000000000
      8999        73  POPC      H11X           29.5262695556       30.5989991584       39.7626524940  MEMB      67              0.0000000000
      9000        73  POPC      H11Y           29.1009224632       30.1686130434       38.0791494490  MEMB      67              0.0000000000
      9001        73  POPC      C312           27.4497314791       30.9599989555       39.2437251867  MEMB      67              0.0000000000
      9002        73  POPC      H12X           27.1317699411       29.9359424954       39.4889391698  MEMB      67              0.0000000000
      9003        73  POPC      H12Y           26.8632767169       31.2699095610       38.3561069904  MEMB      67              0.0000000000
      9004        73  POPC      C313           27.1444129437       31.9316643872       40.3930791422  MEMB      67              0.0000000000
      9005        73  POPC      H13X           26.0672628636       31.8999739597       40.6307993387  MEMB      67              0.0000000000
      9006        73  POPC      H13Y           27.3699030746       32.9738923363       40.0734209670  MEMB      67              0.0000000000
      9007        73  POPC      C314           27.9154478908       31.6474052113       41.6836455521  MEMB      67              0.0000000000
      9008        73  POPC      H14X           29.0033498790       31.8303753453       41.5280640641  MEMB      67              0.0000000000
      9009        73  POPC      H14Y           27.7813618795       30.5869441260       41.9652806008  MEMB      67              0.0000000000
      9010        73  POPC      C315           27.4511513991       32.5391516378       42.8379728452  MEMB      67              0.0000000000
      9011        73  POPC      H15X           26.3576982323       32.4262208728       42.9908950543  MEMB      67              0.0000000000
      9012        73  POPC      H15Y           27.6552596659       33.5978491935       42.5489821909  MEMB      67              0.0000000000
      9013        73  POPC      C316           28.1740191745       32.2445495145       44.1499446799  MEMB      67              0.0000000000
      9014        73  POPC      H16X           27.9021868152       32.9921327436       44.9253716952  MEMB      67              0.0000000000
      9015        73  POPC      H16Y           29.2721554048       32.3189079785       43.9914070094  MEMB      67              0.0000000000
      9016        73  POPC      H16Z           27.9399708789       31.2293026337       44.5300958333  MEMB      67              0.0000000000
      9017        74  POPC      N              31.8899740209       40.5709195394       22.7722060038  MEMB      68              0.0000000000
      9018        74  POPC      C12            31.2079803813       41.7872836696       22.1453819395  MEMB      68              0.0000000000
      9019        74  POPC      H12A           31.1374381359       41.6291784676       21.0705690109  MEMB      68              0.0000000000
      9020        74  POPC      H12B           31.8231782255       42.6671625946       22.2881932266  MEMB      68              0.0000000000
      9021        74  POPC      C13            31.1730559802       39.3213195126       22.3774348943  MEMB      68              0.0000000000
      9022        74  POPC      H13A           30.0890641497       39.4253399078       22.4987649275  MEMB      68              0.0000000000
      9023        74  POPC      H13B           31.3181550134       39.0682677584       21.3372104723  MEMB      68              0.0000000000
      9024        74  POPC      H13C           31.4461861311       38.4669913885       22.9765750401  MEMB      68              0.0000000000
      9025        74  POPC      C14            33.3025329106       40.4379340923       22.2990040583  MEMB      68              0.0000000000
      9026        74  POPC      H14A           33.9017903616       41.2335652735       22.7129043943  MEMB      68              0.0000000000
      9027        74  POPC      H14B           33.7289086715       39.4944455356       22.6407980808  MEMB      68              0.0000000000
      9028        74  POPC      H14C           33.3959052946       40.4533658151       21.2153776657  MEMB      68              0.0000000000
      9029        74  POPC      C15            31.8313223655       40.6420146898       24.2790629338  MEMB      68              0.0000000000
      9030        74  POPC      H15A           32.2507358783       39.7601154210       24.7607030202  MEMB      68              0.0000000000
      9031        74  POPC      H15B           30.7849647060       40.6733573864       24.6097579192  MEMB      68              0.0000000000
      9032        74  POPC      H15C           32.3115977927       41.5199646177       24.6664206240  MEMB      68              0.0000000000
      9033        74  POPC      C11            29.7739755963       42.1238537558       22.6285812046  MEMB      68              0.0000000000
      9034        74  POPC      H11A           29.3803208539       42.9804749960       22.0327563778  MEMB      68              0.0000000000
      9035        74  POPC      H11B           29.8090679852       42.4763126363       23.6902044633  MEMB      68              0.0000000000
      9036        74  POPC      P              27.9052355057       40.5585330896       23.5610508108  MEMB      68              0.0000000000
      9037        74  POPC      O13            27.4002518849       39.2132934863       23.2156411140  MEMB      68              0.0000000000
      9038        74  POPC      O14            26.9239101391       41.6463885546       23.6930999844  MEMB      68              0.0000000000
      9039        74  POPC      O12            28.9171430801       40.9984400378       22.4273101559  MEMB      68              0.0000000000
      9040        74  POPC      O11            28.8099209745       40.4713536825       24.8471029429  MEMB      68              0.0000000000
      9041        74  POPC      C1             28.1011538969       40.7229173813       26.0676546715  MEMB      68              0.0000000000
      9042        74  POPC      HA             27.1390456821       40.1552849346       26.1345333923  MEMB      68              0.0000000000
      9043        74  POPC      HB             27.8316993201       41.8015790686       26.1528944745  MEMB      68              0.0000000000
      9044        74  POPC      C2             28.9966346405       40.2651009508       27.2306114904  MEMB      68              0.0000000000
      9045        74  POPC      HS             28.4623940011       40.4201285672       28.1983473890  MEMB      68              0.0000000000
      9046        74  POPC      O21            30.2562558848       40.9660146082       27.2235387356  MEMB      68              0.0000000000
      9047        74  POPC      C21            30.1295373451       42.2459510844       27.4690254120  MEMB      68              0.0000000000
      9048        74  POPC      O22            29.1093895784       42.8227732519       27.7977181666  MEMB      68              0.0000000000
      9049        74  POPC      C22            31.4893731350       42.9259658282       27.4078773908  MEMB      68              0.0000000000
      9050        74  POPC      H2R            31.6022670601       43.3513662145       26.3916671468  MEMB      68              0.0000000000
      9051        74  POPC      H2S            32.2832773970       42.1733115093       27.5883165766  MEMB      68              0.0000000000
      9052        74  POPC      C3             29.2711085334       38.7497206779       27.0736942400  MEMB      68              0.0000000000
      9053        74  POPC      HX             29.7539928360       38.5536915180       26.0873708394  MEMB      68              0.0000000000
      9054        74  POPC      HY             28.2860938792       38.2329505977       27.0565528931  MEMB      68              0.0000000000
      9055        74  POPC      O31            30.0355456102       38.2545168172       28.1836174698  MEMB      68              0.0000000000
      9056        74  POPC      C31            31.3472618655       38.4426620371       28.0997212208  MEMB      68              0.0000000000
      9057        74  POPC      O32            31.9535681757       38.7620362585       27.0920769639  MEMB      68              0.0000000000
      9058        74  POPC      C32            32.0019090272       38.0666447552       29.4449937082  MEMB      68              0.0000000000
      9059        74  POPC      H2X            32.9587761432       37.5808383105       29.1693438256  MEMB      68              0.0000000000
      9060        74  POPC      H2Y            31.3675825046       37.3089035453       29.9484643352  MEMB      68              0.0000000000
      9061        74  POPC      C23            31.5467509399       44.0414748430       28.4754043998  MEMB      68              0.0000000000
      9062        74  POPC      H3R            30.7485573736       44.7932148286       28.2746816774  MEMB      68              0.0000000000
      9063        74  POPC      H3S            32.5281744427       44.5619105169       28.4180328314  MEMB      68              0.0000000000
      9064        74  POPC      C24            31.3688871640       43.4944416081       29.8973874720  MEMB      68              0.0000000000
      9065        74  POPC      H4R            32.2857523739       42.9188933812       30.1602260473  MEMB      68              0.0000000000
      9066        74  POPC      H4S            30.5192526170       42.7781748487       29.9589867750  MEMB      68              0.0000000000
      9067        74  POPC      C25            31.0903651388       44.5771420069       30.9518501054  MEMB      68              0.0000000000
      9068        74  POPC      H5R            30.0629738635       44.9833035907       30.8287431581  MEMB      68              0.0000000000
      9069        74  POPC      H5S            31.8106562148       45.4123846759       30.8195141749  MEMB      68              0.0000000000
      9070        74  POPC      C26            31.2805042839       43.9650790089       32.3408428248  MEMB      68              0.0000000000
      9071        74  POPC      H6R            32.2406419270       43.4113828865       32.2413964383  MEMB      68              0.0000000000
      9072        74  POPC      H6S            30.4777446611       43.2231606663       32.5482480162  MEMB      68              0.0000000000
      9073        74  POPC      C27            31.3993871153       44.9598972450       33.5116349709  MEMB      68              0.0000000000
      9074        74  POPC      H7R            30.3988816078       45.4036078367       33.7121281701  MEMB      68              0.0000000000
      9075        74  POPC      H7S            32.0660615243       45.7928004007       33.1933402455  MEMB      68              0.0000000000
      9076        74  POPC      C28            31.9754413897       44.3607880740       34.8298379740  MEMB      68              0.0000000000
      9077        74  POPC      H8R            31.2119907770       44.4815431856       35.6303431409  MEMB      68              0.0000000000
      9078        74  POPC      H8S            32.8410998097       44.9925783536       35.1364228315  MEMB      68              0.0000000000
      9079        74  POPC      C29            32.4210392280       42.9232727703       34.6830932315  MEMB      68              0.0000000000
      9080        74  POPC      H91            33.1944522741       42.7636732735       33.9173435018  MEMB      68              0.0000000000
      9081        74  POPC      C210           32.0212520022       41.8429560121       35.3652926669  MEMB      68              0.0000000000
      9082        74  POPC      H101           32.3826662932       40.8565343198       35.0342639731  MEMB      68              0.0000000000
      9083        74  POPC      C211           31.0204045219       41.7629309860       36.4808458664  MEMB      68              0.0000000000
      9084        74  POPC      H11R           30.1286675102       41.1984125039       36.1341603814  MEMB      68              0.0000000000
      9085        74  POPC      H11S           30.6737861810       42.7594239321       36.8319815378  MEMB      68              0.0000000000
      9086        74  POPC      C212           31.6361678097       40.9875070920       37.6607773373  MEMB      68              0.0000000000
      9087        74  POPC      H12R           31.9323771746       39.9712927213       37.3234562384  MEMB      68              0.0000000000
      9088        74  POPC      H12S           30.8850252048       40.7927903115       38.4469030383  MEMB      68              0.0000000000
      9089        74  POPC      C213           32.8074761543       41.7132591464       38.3395860885  MEMB      68              0.0000000000
      9090        74  POPC      H13R           32.4201139624       42.6188186091       38.8544749203  MEMB      68              0.0000000000
      9091        74  POPC      H13S           33.5394327056       42.0578104622       37.5778837524  MEMB      68              0.0000000000
      9092        74  POPC      C214           33.5327536684       40.7882152246       39.3231776586  MEMB      68              0.0000000000
      9093        74  POPC      H14R           34.5789346228       40.6457431370       38.9635164370  MEMB      68              0.0000000000
      9094        74  POPC      H14S           33.0187302999       39.8033097046       39.3311175129  MEMB      68              0.0000000000
      9095        74  POPC      C215           33.5552641687       41.2869693538       40.7588897497  MEMB      68              0.0000000000
      9096        74  POPC      H15R           33.2086003710       42.3419154887       40.7804536872  MEMB      68              0.0000000000
      9097        74  POPC      H15S           34.6086591203       41.2642726456       41.1240123577  MEMB      68              0.0000000000
      9098        74  POPC      C216           32.7193710039       40.4446335589       41.7314276139  MEMB      68              0.0000000000
      9099        74  POPC      H16R           32.9892616051       39.3741577636       41.5971189464  MEMB      68              0.0000000000
      9100        74  POPC      H16S           31.6388022381       40.5029966292       41.5030589038  MEMB      68              0.0000000000
      9101        74  POPC      C217           32.9962329942       40.8675036747       43.1785709093  MEMB      68              0.0000000000
      9102        74  POPC      H17R           33.9740313513       40.4091237396       43.4276033771  MEMB      68              0.0000000000
      9103        74  POPC      H17S           32.2279593911       40.4445956752       43.8636372107  MEMB      68              0.0000000000
      9104        74  POPC      C218           33.1818014254       42.3650233287       43.4386059671  MEMB      68              0.0000000000
      9105        74  POPC      H18R           33.8720316883       42.8316924393       42.7097489198  MEMB      68              0.0000000000
      9106        74  POPC      H18S           33.6366272613       42.5420637726       44.4285747520  MEMB      68              0.0000000000
      9107        74  POPC      H18T           32.2365690368       42.9237402985       43.4304706306  MEMB      68              0.0000000000
      9108        74  POPC      C33            32.2788754084       39.2512360935       30.4225943345  MEMB      68              0.0000000000
      9109        74  POPC      H3X            32.2145272178       40.2322061299       29.9064147616  MEMB      68              0.0000000000
      9110        74  POPC      H3Y            33.3284139372       39.1514172366       30.7854260655  MEMB      68              0.0000000000
      9111        74  POPC      C34            31.4166160232       39.2504901447       31.7071116704  MEMB      68              0.0000000000
      9112        74  POPC      H4X            31.8210521113       39.9857397413       32.4373592852  MEMB      68              0.0000000000
      9113        74  POPC      H4Y            31.5076510784       38.2541470489       32.1843010184  MEMB      68              0.0000000000
      9114        74  POPC      C35            29.9214020669       39.5548429104       31.5069624598  MEMB      68              0.0000000000
      9115        74  POPC      H5X            29.6097869421       39.0991381572       30.5387989271  MEMB      68              0.0000000000
      9116        74  POPC      H5Y            29.7594862373       40.6507947125       31.4266086905  MEMB      68              0.0000000000
      9117        74  POPC      C36            28.9943360340       38.9506686019       32.5892213030  MEMB      68              0.0000000000
      9118        74  POPC      H6X            29.2067114221       37.8581955895       32.6658099990  MEMB      68              0.0000000000
      9119        74  POPC      H6Y            27.9458102897       39.0532640088       32.2317110975  MEMB      68              0.0000000000
      9120        74  POPC      C37            29.0609945315       39.5421092678       34.0165824375  MEMB      68              0.0000000000
      9121        74  POPC      H7X            28.8362250145       40.6278226264       33.9861269316  MEMB      68              0.0000000000
      9122        74  POPC      H7Y            30.0920607932       39.4141768304       34.4159205146  MEMB      68              0.0000000000
      9123        74  POPC      C38            28.0683130166       38.8169366903       34.9586238833  MEMB      68              0.0000000000
      9124        74  POPC      H8X            28.3755420011       37.7417361477       34.9761314418  MEMB      68              0.0000000000
      9125        74  POPC      H8Y            27.0513638405       38.8616139803       34.5155071957  MEMB      68              0.0000000000
      9126        74  POPC      C39            28.0008625211       39.3007771840       36.4275748512  MEMB      68              0.0000000000
      9127        74  POPC      H9X            29.0299574567       39.3091172651       36.8490812325  MEMB      68              0.0000000000
      9128        74  POPC      H9Y            27.4316738372       38.5380312049       37.0085158928  MEMB      68              0.0000000000
      9129        74  POPC      C310           27.3144418495       40.6662872700       36.6110188283  MEMB      68              0.0000000000
      9130        74  POPC      H10X           26.3179349884       40.6310035564       36.1175411361  MEMB      68              0.0000000000
      9131        74  POPC      H10Y           27.9133378988       41.4390605988       36.0787603164  MEMB      68              0.0000000000
      9132        74  POPC      C311           27.1135640577       41.1262625286       38.0770405659  MEMB      68              0.0000000000
      9133        74  POPC      H11X           26.4268816675       40.4463589096       38.6218096147  MEMB      68              0.0000000000
      9134        74  POPC      H11Y           26.6354679688       42.1211817194       38.0116384837  MEMB      68              0.0000000000
      9135        74  POPC      C312           28.4320114488       41.2998619374       38.8414105330  MEMB      68              0.0000000000
      9136        74  POPC      H12X           29.1003734601       41.7825870918       38.1011813570  MEMB      68              0.0000000000
      9137        74  POPC      H12Y           28.8525778290       40.3039418888       39.1058712679  MEMB      68              0.0000000000
      9138        74  POPC      C313           28.4858780983       42.2347261072       40.0682327734  MEMB      68              0.0000000000
      9139        74  POPC      H13X           28.0459075247       41.7299567744       40.9532299470  MEMB      68              0.0000000000
      9140        74  POPC      H13Y           27.9303129740       43.1710611895       39.8789766437  MEMB      68              0.0000000000
      9141        74  POPC      C314           29.9437709209       42.6571814312       40.3356428917  MEMB      68              0.0000000000
      9142        74  POPC      H14X           30.3230760368       43.1995016565       39.4404159045  MEMB      68              0.0000000000
      9143        74  POPC      H14Y           30.5395882568       41.7299440694       40.4282498624  MEMB      68              0.0000000000
      9144        74  POPC      C315           30.2069477181       43.5299415785       41.5695977778  MEMB      68              0.0000000000
      9145        74  POPC      H15X           29.6715451548       44.4979700876       41.4804731067  MEMB      68              0.0000000000
      9146        74  POPC      H15Y           31.2971810482       43.7649612247       41.5910583143  MEMB      68              0.0000000000
      9147        74  POPC      C316           29.8102143140       42.8747972662       42.8873493247  MEMB      68              0.0000000000
      9148        74  POPC      H16X           28.7144664645       42.8169603787       42.9496120895  MEMB      68              0.0000000000
      9149        74  POPC      H16Y           30.1760697764       43.4734640218       43.7502470773  MEMB      68              0.0000000000
      9150        74  POPC      H16Z           30.2323051008       41.8491523559       42.9644332523  MEMB      68              0.0000000000
      9151        75  POPC      N              40.3545649601       28.6278737332       22.3739392270  MEMB      69              0.0000000000
      9152        75  POPC      C12            39.1941698456       28.9247736922       21.4112041018  MEMB      69              0.0000000000
      9153        75  POPC      H12A           39.2077640516       28.2337309501       20.5723833843  MEMB      69              0.0000000000
      9154        75  POPC      H12B           39.3551227936       29.9152664107       21.0109771258  MEMB      69              0.0000000000
      9155        75  POPC      C13            40.0359493811       27.3522487726       23.0677383958  MEMB      69              0.0000000000
      9156        75  POPC      H13A           40.0662319523       26.5300583075       22.3699340049  MEMB      69              0.0000000000
      9157        75  POPC      H13B           40.6273625236       27.1680520316       23.9504077518  MEMB      69              0.0000000000
      9158        75  POPC      H13C           38.9956325189       27.4148828696       23.4133406049  MEMB      69              0.0000000000
      9159        75  POPC      C14            41.5998423176       28.5106581506       21.5694546554  MEMB      69              0.0000000000
      9160        75  POPC      H14A           41.7713994888       29.3904046639       20.9665786268  MEMB      69              0.0000000000
      9161        75  POPC      H14B           42.4529650573       28.3440126243       22.2008655814  MEMB      69              0.0000000000
      9162        75  POPC      H14C           41.5535432412       27.6452286585       20.9053743138  MEMB      69              0.0000000000
      9163        75  POPC      C15            40.4446290526       29.7504333321       23.3797385488  MEMB      69              0.0000000000
      9164        75  POPC      H15A           39.4985180693       29.8066950400       23.9397234197  MEMB      69              0.0000000000
      9165        75  POPC      H15B           40.4850104980       30.7219829812       22.9038755816  MEMB      69              0.0000000000
      9166        75  POPC      H15C           41.2308642669       29.6448615512       24.1020196251  MEMB      69              0.0000000000
      9167        75  POPC      C11            37.7473335492       28.9857349181       21.9537482515  MEMB      69              0.0000000000
      9168        75  POPC      H11A           37.3896260802       27.9501030832       22.1517017680  MEMB      69              0.0000000000
      9169        75  POPC      H11B           37.0834678806       29.3989687949       21.1599318302  MEMB      69              0.0000000000
      9170        75  POPC      P              36.9515159706       29.3870092016       24.3992557981  MEMB      69              0.0000000000
      9171        75  POPC      O13            35.4995799118       29.2455919600       24.1457066440  MEMB      69              0.0000000000
      9172        75  POPC      O14            37.4054611860       30.1984355000       25.5365046906  MEMB      69              0.0000000000
      9173        75  POPC      O12            37.6755669713       29.8554287583       23.0798980204  MEMB      69              0.0000000000
      9174        75  POPC      O11            37.5871230899       27.9386896735       24.5161988473  MEMB      69              0.0000000000
      9175        75  POPC      C1             36.9217920884       26.9424958795       25.2887605593  MEMB      69              0.0000000000
      9176        75  POPC      HA             37.1105866021       25.9560892660       24.8081905177  MEMB      69              0.0000000000
      9177        75  POPC      HB             35.8113394830       27.0563942894       25.3122726079  MEMB      69              0.0000000000
      9178        75  POPC      C2             37.4944866742       26.8395291765       26.7295349948  MEMB      69              0.0000000000
      9179        75  POPC      HS             37.0030830298       25.9481777799       27.1954690313  MEMB      69              0.0000000000
      9180        75  POPC      O21            37.2976495029       27.9657973259       27.5615132832  MEMB      69              0.0000000000
      9181        75  POPC      C21            36.0960628238       28.2958425014       27.9061035946  MEMB      69              0.0000000000
      9182        75  POPC      O22            35.0497530547       27.8820734959       27.4367791608  MEMB      69              0.0000000000
      9183        75  POPC      C22            36.2309946559       29.2048040458       29.1380375958  MEMB      69              0.0000000000
      9184        75  POPC      H2R            35.3683887168       29.0077380054       29.7931336162  MEMB      69              0.0000000000
      9185        75  POPC      H2S            36.1627380987       30.2458466045       28.7559089080  MEMB      69              0.0000000000
      9186        75  POPC      C3             39.0179001433       26.5809284688       26.7675534770  MEMB      69              0.0000000000
      9187        75  POPC      HX             39.1869158756       25.8955256999       25.9176052125  MEMB      69              0.0000000000
      9188        75  POPC      HY             39.1930244677       26.0618025507       27.7389158653  MEMB      69              0.0000000000
      9189        75  POPC      O31            39.8622518677       27.7434748399       26.5960790798  MEMB      69              0.0000000000
      9190        75  POPC      C31            40.6575039555       28.0688045785       27.6079797408  MEMB      69              0.0000000000
      9191        75  POPC      O32            40.8767254779       27.3918150411       28.5987801703  MEMB      69              0.0000000000
      9192        75  POPC      C32            41.3487393122       29.3901905127       27.2870296794  MEMB      69              0.0000000000
      9193        75  POPC      H2X            41.2406113314       29.5962453915       26.2040159013  MEMB      69              0.0000000000
      9194        75  POPC      H2Y            42.4229927888       29.2679785252       27.5255335024  MEMB      69              0.0000000000
      9195        75  POPC      C23            37.5804201748       29.0264966124       29.8991624677  MEMB      69              0.0000000000
      9196        75  POPC      H3R            37.6247991943       29.7682355098       30.7237706410  MEMB      69              0.0000000000
      9197        75  POPC      H3S            38.4136413116       29.2832386114       29.2071052707  MEMB      69              0.0000000000
      9198        75  POPC      C24            37.8640050658       27.6184061045       30.4761354209  MEMB      69              0.0000000000
      9199        75  POPC      H4R            38.8680066491       27.6431282838       30.9554168989  MEMB      69              0.0000000000
      9200        75  POPC      H4S            37.9298544218       26.8700952289       29.6553768114  MEMB      69              0.0000000000
      9201        75  POPC      C25            36.8155984432       27.1465831071       31.4829781736  MEMB      69              0.0000000000
      9202        75  POPC      H5R            36.0193725161       26.5958856568       30.9364022015  MEMB      69              0.0000000000
      9203        75  POPC      H5S            36.3798435536       28.0657902936       31.9316828325  MEMB      69              0.0000000000
      9204        75  POPC      C26            37.3439640614       26.2617938703       32.6246583039  MEMB      69              0.0000000000
      9205        75  POPC      H6R            36.7188870546       26.4639487770       33.5200065069  MEMB      69              0.0000000000
      9206        75  POPC      H6S            38.3903590273       26.5320374790       32.8716502893  MEMB      69              0.0000000000
      9207        75  POPC      C27            37.2756085075       24.7455583169       32.3855805451  MEMB      69              0.0000000000
      9208        75  POPC      H7R            38.2753413946       24.3892825404       32.0536853345  MEMB      69              0.0000000000
      9209        75  POPC      H7S            36.5697796030       24.5444756622       31.5492165106  MEMB      69              0.0000000000
      9210        75  POPC      C28            36.8095285389       23.9451929284       33.6309166693  MEMB      69              0.0000000000
      9211        75  POPC      H8R            36.8077805712       22.8675072224       33.3559338343  MEMB      69              0.0000000000
      9212        75  POPC      H8S            35.7581242072       24.2191286348       33.8557386502  MEMB      69              0.0000000000
      9213        75  POPC      C29            37.6764763948       24.1682959262       34.8473185404  MEMB      69              0.0000000000
      9214        75  POPC      H91            38.7248684796       24.4017283715       34.6149303156  MEMB      69              0.0000000000
      9215        75  POPC      C210           37.3210813607       24.1087228796       36.1479044198  MEMB      69              0.0000000000
      9216        75  POPC      H101           38.0818428263       24.3440683108       36.9060043046  MEMB      69              0.0000000000
      9217        75  POPC      C211           35.9756000867       23.8007003937       36.7441659497  MEMB      69              0.0000000000
      9218        75  POPC      H11R           35.2870454805       23.3772957103       35.9785920636  MEMB      69              0.0000000000
      9219        75  POPC      H11S           35.5248549521       24.7494514616       37.1001043484  MEMB      69              0.0000000000
      9220        75  POPC      C212           35.9981050404       22.8013666636       37.9326523007  MEMB      69              0.0000000000
      9221        75  POPC      H12R           36.2894269106       21.7996916117       37.5424925152  MEMB      69              0.0000000000
      9222        75  POPC      H12S           34.9647111747       22.6923841129       38.3318901430  MEMB      69              0.0000000000
      9223        75  POPC      C213           36.9247659816       23.1467380907       39.1191874749  MEMB      69              0.0000000000
      9224        75  POPC      H13R           37.9699310253       23.0140013255       38.7878388080  MEMB      69              0.0000000000
      9225        75  POPC      H13S           36.7534976751       22.4027780936       39.9303367726  MEMB      69              0.0000000000
      9226        75  POPC      C214           36.7640378660       24.5551154898       39.7200586775  MEMB      69              0.0000000000
      9227        75  POPC      H14R           35.7455929289       24.6110112696       40.1656709561  MEMB      69              0.0000000000
      9228        75  POPC      H14S           36.8345476577       25.3240713737       38.9215175383  MEMB      69              0.0000000000
      9229        75  POPC      C215           37.8053561349       24.8730302202       40.8181786475  MEMB      69              0.0000000000
      9230        75  POPC      H15R           38.1058365760       23.9367129314       41.3340953641  MEMB      69              0.0000000000
      9231        75  POPC      H15S           37.3266631054       25.5314643732       41.5780588741  MEMB      69              0.0000000000
      9232        75  POPC      C216           39.0472006639       25.6139931409       40.2890832724  MEMB      69              0.0000000000
      9233        75  POPC      H16R           38.6849951899       26.5350127178       39.7900918206  MEMB      69              0.0000000000
      9234        75  POPC      H16S           39.5583652266       25.0128891681       39.5168671108  MEMB      69              0.0000000000
      9235        75  POPC      C217           40.0826594357       26.0176771227       41.3553700844  MEMB      69              0.0000000000
      9236        75  POPC      H17R           39.5850962201       26.1109486861       42.3432760222  MEMB      69              0.0000000000
      9237        75  POPC      H17S           40.4744473743       27.0248282419       41.1011966471  MEMB      69              0.0000000000
      9238        75  POPC      C218           41.3110751320       25.1082375171       41.4368302720  MEMB      69              0.0000000000
      9239        75  POPC      H18R           41.7957194394       25.0135183346       40.4421654384  MEMB      69              0.0000000000
      9240        75  POPC      H18S           41.0286259412       24.0968114726       41.7867974738  MEMB      69              0.0000000000
      9241        75  POPC      H18T           42.0612151114       25.5270737581       42.1403147134  MEMB      69              0.0000000000
      9242        75  POPC      C33            40.7517862395       30.5635671967       28.0880365017  MEMB      69              0.0000000000
      9243        75  POPC      H3X            39.6464423001       30.6034533023       27.9453131369  MEMB      69              0.0000000000
      9244        75  POPC      H3Y            41.1612239314       31.5146864238       27.6776741679  MEMB      69              0.0000000000
      9245        75  POPC      C34            41.1103400859       30.4984748748       29.5783147195  MEMB      69              0.0000000000
      9246        75  POPC      H4X            42.2046380951       30.3323546073       29.6930390883  MEMB      69              0.0000000000
      9247        75  POPC      H4Y            40.5973104040       29.6245368963       30.0366750687  MEMB      69              0.0000000000
      9248        75  POPC      C35            40.7313134825       31.7800027512       30.3330647929  MEMB      69              0.0000000000
      9249        75  POPC      H5X            39.6593405559       32.0117599164       30.1420711216  MEMB      69              0.0000000000
      9250        75  POPC      H5Y            41.3328077109       32.6262961875       29.9312137193  MEMB      69              0.0000000000
      9251        75  POPC      C36            40.9667380028       31.6706044169       31.8454180006  MEMB      69              0.0000000000
      9252        75  POPC      H6X            40.9029805016       32.6890121301       32.2938412544  MEMB      69              0.0000000000
      9253        75  POPC      H6Y            41.9917447599       31.2837259873       32.0397759554  MEMB      69              0.0000000000
      9254        75  POPC      C37            39.9260669827       30.7790589740       32.5348105738  MEMB      69              0.0000000000
      9255        75  POPC      H7X            39.9192135027       29.7634671434       32.0818602011  MEMB      69              0.0000000000
      9256        75  POPC      H7Y            38.9255929092       31.2364972996       32.3627021528  MEMB      69              0.0000000000
      9257        75  POPC      C38            40.1703854557       30.6505319628       34.0409741947  MEMB      69              0.0000000000
      9258        75  POPC      H8X            40.4508583439       31.6533854816       34.4385483431  MEMB      69              0.0000000000
      9259        75  POPC      H8Y            41.0302580675       29.9681522403       34.2277971531  MEMB      69              0.0000000000
      9260        75  POPC      C39            38.9307916340       30.1633753428       34.8083826393  MEMB      69              0.0000000000
      9261        75  POPC      H9X            38.0310586981       30.6895852260       34.4315039405  MEMB      69              0.0000000000
      9262        75  POPC      H9Y            39.0941584206       30.4790525018       35.8582505413  MEMB      69              0.0000000000
      9263        75  POPC      C310           38.7679795351       28.6395329464       34.7593863394  MEMB      69              0.0000000000
      9264        75  POPC      H10X           39.7175617690       28.1892897056       35.1325823624  MEMB      69              0.0000000000
      9265        75  POPC      H10Y           38.6786703243       28.3584070451       33.6890266385  MEMB      69              0.0000000000
      9266        75  POPC      C311           37.6188622061       28.0068637934       35.5737256402  MEMB      69              0.0000000000
      9267        75  POPC      H11X           37.9072355483       26.9407818967       35.7481832619  MEMB      69              0.0000000000
      9268        75  POPC      H11Y           36.6963717265       27.9747446400       34.9657566628  MEMB      69              0.0000000000
      9269        75  POPC      C312           37.3234941686       28.6362176610       36.9436071711  MEMB      69              0.0000000000
      9270        75  POPC      H12X           36.5549172473       28.0056019253       37.4458300471  MEMB      69              0.0000000000
      9271        75  POPC      H12Y           36.9108404070       29.6602964988       36.8219167145  MEMB      69              0.0000000000
      9272        75  POPC      C313           38.5469775175       28.6969910922       37.8762673003  MEMB      69              0.0000000000
      9273        75  POPC      H13X           39.3188353917       29.3994418618       37.5013151106  MEMB      69              0.0000000000
      9274        75  POPC      H13Y           39.0254732853       27.6926036900       37.9173670607  MEMB      69              0.0000000000
      9275        75  POPC      C314           38.1743401464       29.1453656120       39.2921954114  MEMB      69              0.0000000000
      9276        75  POPC      H14X           37.4532967999       28.3983141236       39.6946559529  MEMB      69              0.0000000000
      9277        75  POPC      H14Y           37.6706179983       30.1352828421       39.2611287243  MEMB      69              0.0000000000
      9278        75  POPC      C315           39.3692578395       29.2369565778       40.2587949663  MEMB      69              0.0000000000
      9279        75  POPC      H15X           40.2413536625       28.7094053060       39.8115179990  MEMB      69              0.0000000000
      9280        75  POPC      H15Y           39.0934373930       28.6999403077       41.1967323662  MEMB      69              0.0000000000
      9281        75  POPC      C316           39.7875443881       30.6547338504       40.6472063539  MEMB      69              0.0000000000
      9282        75  POPC      H16X           40.5701060510       30.6256022759       41.4373265407  MEMB      69              0.0000000000
      9283        75  POPC      H16Y           38.9251017074       31.2320664187       41.0420110519  MEMB      69              0.0000000000
      9284        75  POPC      H16Z           40.2029868962       31.1924141918       39.7696282810  MEMB      69              0.0000000000
      9285        76  POPC      N              30.4997016330       26.2236186969       21.8561443609  MEMB      70              0.0000000000
      9286        76  POPC      C12            29.0995109034       25.6361192324       21.7260087388  MEMB      70              0.0000000000
      9287        76  POPC      H12A           29.0864480642       24.9614494681       20.8734947975  MEMB      70              0.0000000000
      9288        76  POPC      H12B           28.3992337410       26.4374391677       21.5157743460  MEMB      70              0.0000000000
      9289        76  POPC      C13            31.5356267877       25.1404212062       21.6648093109  MEMB      70              0.0000000000
      9290        76  POPC      H13A           31.4093966595       24.3570819548       22.4123902641  MEMB      70              0.0000000000
      9291        76  POPC      H13B           31.4254237648       24.7049240594       20.6758867941  MEMB      70              0.0000000000
      9292        76  POPC      H13C           32.5404810297       25.5357708940       21.7186356461  MEMB      70              0.0000000000
      9293        76  POPC      C14            30.7246461800       27.2911593464       20.8376455950  MEMB      70              0.0000000000
      9294        76  POPC      H14A           31.5511990563       27.9480714985       21.1031724515  MEMB      70              0.0000000000
      9295        76  POPC      H14B           30.9999600587       26.8445178934       19.8781404978  MEMB      70              0.0000000000
      9296        76  POPC      H14C           29.8456054018       27.9124242234       20.6795545916  MEMB      70              0.0000000000
      9297        76  POPC      C15            30.6751534547       26.7718219729       23.2181003536  MEMB      70              0.0000000000
      9298        76  POPC      H15A           29.9934535012       27.5807688255       23.3916135474  MEMB      70              0.0000000000
      9299        76  POPC      H15B           31.6878420726       27.0810631397       23.4086077147  MEMB      70              0.0000000000
      9300        76  POPC      H15C           30.4592091341       25.9636257412       23.9156817493  MEMB      70              0.0000000000
      9301        76  POPC      C11            28.5732793159       24.8388637862       22.9431718483  MEMB      70              0.0000000000
      9302        76  POPC      H11A           27.5887758577       24.3879806370       22.6862000161  MEMB      70              0.0000000000
      9303        76  POPC      H11B           28.3895991583       25.5182825333       23.8135041759  MEMB      70              0.0000000000
      9304        76  POPC      P              29.9459596177       23.3941889120       24.6735648482  MEMB      70              0.0000000000
      9305        76  POPC      O13            31.1697397787       22.5835620728       24.4875913928  MEMB      70              0.0000000000
      9306        76  POPC      O14            28.7830151378       22.8051529366       25.3684088269  MEMB      70              0.0000000000
      9307        76  POPC      O12            29.4803253017       23.7879045827       23.2315168149  MEMB      70              0.0000000000
      9308        76  POPC      O11            30.3436064320       24.7822651232       25.3683080641  MEMB      70              0.0000000000
      9309        76  POPC      C1             31.4163333295       24.6537382005       26.3374575576  MEMB      70              0.0000000000
      9310        76  POPC      HA             31.6080384758       25.6469974857       26.8032946446  MEMB      70              0.0000000000
      9311        76  POPC      HB             32.3701799836       24.3536438615       25.8414419620  MEMB      70              0.0000000000
      9312        76  POPC      C2             31.1143817901       23.6382338200       27.4970412961  MEMB      70              0.0000000000
      9313        76  POPC      HS             30.9417942689       22.6221115988       27.0728566736  MEMB      70              0.0000000000
      9314        76  POPC      O21            29.9317804192       24.1289733851       28.1653782505  MEMB      70              0.0000000000
      9315        76  POPC      C21            29.3385434029       23.3444943708       29.0476174786  MEMB      70              0.0000000000
      9316        76  POPC      O22            29.7399532124       22.2652045338       29.4395093198  MEMB      70              0.0000000000
      9317        76  POPC      C22            28.0359878872       23.9824417140       29.5204510366  MEMB      70              0.0000000000
      9318        76  POPC      H2R            27.2219640540       23.3768370447       29.0712764326  MEMB      70              0.0000000000
      9319        76  POPC      H2S            27.9713811243       25.0244106723       29.1484487984  MEMB      70              0.0000000000
      9320        76  POPC      C3             32.3262188721       23.4862383775       28.4617295883  MEMB      70              0.0000000000
      9321        76  POPC      HX             33.2468479265       23.3122058846       27.8535983821  MEMB      70              0.0000000000
      9322        76  POPC      HY             32.1769625596       22.5830179873       29.0922825036  MEMB      70              0.0000000000
      9323        76  POPC      O31            32.3922184574       24.6433629583       29.2974043789  MEMB      70              0.0000000000
      9324        76  POPC      C31            33.3683933837       25.5022653974       29.1312247175  MEMB      70              0.0000000000
      9325        76  POPC      O32            34.4972351749       25.2598830888       28.7530685194  MEMB      70              0.0000000000
      9326        76  POPC      C32            32.7632689685       26.8700442402       29.4249877754  MEMB      70              0.0000000000
      9327        76  POPC      H2X            31.6636777409       26.7896479837       29.3377387114  MEMB      70              0.0000000000
      9328        76  POPC      H2Y            33.1003831565       27.5853852542       28.6489508897  MEMB      70              0.0000000000
      9329        76  POPC      C23            27.8727634513       23.9673412500       31.0613835230  MEMB      70              0.0000000000
      9330        76  POPC      H3R            28.0660949817       22.9520168271       31.4767280682  MEMB      70              0.0000000000
      9331        76  POPC      H3S            26.8150791820       24.2355299596       31.2949193111  MEMB      70              0.0000000000
      9332        76  POPC      C24            28.7787731512       24.9965023758       31.7455263906  MEMB      70              0.0000000000
      9333        76  POPC      H4R            28.6370506326       25.9846011340       31.2552994273  MEMB      70              0.0000000000
      9334        76  POPC      H4S            29.8427377947       24.6964509296       31.6056895102  MEMB      70              0.0000000000
      9335        76  POPC      C25            28.4945102008       25.1300678554       33.2508719404  MEMB      70              0.0000000000
      9336        76  POPC      H5R            28.6108373709       24.1233593064       33.7147651531  MEMB      70              0.0000000000
      9337        76  POPC      H5S            27.4500157300       25.4661333092       33.4207387518  MEMB      70              0.0000000000
      9338        76  POPC      C26            29.4712764743       26.0917091951       33.9376195656  MEMB      70              0.0000000000
      9339        76  POPC      H6R            30.4844592925       25.8027651925       33.5974313338  MEMB      70              0.0000000000
      9340        76  POPC      H6S            29.4589086168       25.9454565269       35.0280142392  MEMB      70              0.0000000000
      9341        76  POPC      C27            29.2367201303       27.5746361023       33.6349868524  MEMB      70              0.0000000000
      9342        76  POPC      H7R            28.9050727925       27.6649298560       32.5792731868  MEMB      70              0.0000000000
      9343        76  POPC      H7S            30.2070525322       28.1092306027       33.7336792110  MEMB      70              0.0000000000
      9344        76  POPC      C28            28.1993657316       28.2645005635       34.5389148963  MEMB      70              0.0000000000
      9345        76  POPC      H8R            27.2375832761       27.7125489069       34.4696030485  MEMB      70              0.0000000000
      9346        76  POPC      H8S            28.0145548047       29.2817249761       34.1281634616  MEMB      70              0.0000000000
      9347        76  POPC      C29            28.7069820321       28.3999299355       35.9508360100  MEMB      70              0.0000000000
      9348        76  POPC      H91            29.6493016950       28.9561267241       36.0316546558  MEMB      70              0.0000000000
      9349        76  POPC      C210           28.1301148942       27.9512345291       37.0783238995  MEMB      70              0.0000000000
      9350        76  POPC      H101           28.6480444874       28.1011059258       38.0360300902  MEMB      70              0.0000000000
      9351        76  POPC      C211           26.8362084770       27.2020818165       37.2133839531  MEMB      70              0.0000000000
      9352        76  POPC      H11R           26.3287100145       27.0382469318       36.2376888512  MEMB      70              0.0000000000
      9353        76  POPC      H11S           26.1393758452       27.7847940350       37.8511846259  MEMB      70              0.0000000000
      9354        76  POPC      C212           27.0972421335       25.8335953212       37.8567181199  MEMB      70              0.0000000000
      9355        76  POPC      H12R           26.1246624052       25.3426564708       38.0681586973  MEMB      70              0.0000000000
      9356        76  POPC      H12S           27.6248449565       25.9504135231       38.8302636480  MEMB      70              0.0000000000
      9357        76  POPC      C213           27.9347162500       24.9421107010       36.9347910270  MEMB      70              0.0000000000
      9358        76  POPC      H13R           28.9413812602       25.4074947449       36.8567690154  MEMB      70              0.0000000000
      9359        76  POPC      H13S           27.4796551233       24.9043920723       35.9221184270  MEMB      70              0.0000000000
      9360        76  POPC      C214           28.1778785341       23.5315170233       37.4534721161  MEMB      70              0.0000000000
      9361        76  POPC      H14R           28.7031175276       23.6621189028       38.4199578082  MEMB      70              0.0000000000
      9362        76  POPC      H14S           28.8553843836       22.9922846783       36.7513687288  MEMB      70              0.0000000000
      9363        76  POPC      C215           26.9257522062       22.7023872492       37.7080617909  MEMB      70              0.0000000000
      9364        76  POPC      H15R           26.3537742855       22.5951277984       36.7573257148  MEMB      70              0.0000000000
      9365        76  POPC      H15S           26.2607012681       23.2247437734       38.4262667523  MEMB      70              0.0000000000
      9366        76  POPC      C216           27.2569139897       21.3100188336       38.2621446233  MEMB      70              0.0000000000
      9367        76  POPC      H16R           27.4047776860       20.6519415095       37.3747783059  MEMB      70              0.0000000000
      9368        76  POPC      H16S           26.3819392942       20.9315767012       38.8342986219  MEMB      70              0.0000000000
      9369        76  POPC      C217           28.5339170339       21.1608734035       39.1193110027  MEMB      70              0.0000000000
      9370        76  POPC      H17R           29.4256741858       21.4325631047       38.5132169064  MEMB      70              0.0000000000
      9371        76  POPC      H17S           28.6200452196       20.0783562479       39.3414743919  MEMB      70              0.0000000000
      9372        76  POPC      C218           28.5988547828       21.8842337851       40.4669474981  MEMB      70              0.0000000000
      9373        76  POPC      H18R           29.4654482360       21.5139932915       41.0559107366  MEMB      70              0.0000000000
      9374        76  POPC      H18S           27.6876950286       21.6841822837       41.0613770928  MEMB      70              0.0000000000
      9375        76  POPC      H18T           28.7149968548       22.9797896218       40.3495471516  MEMB      70              0.0000000000
      9376        76  POPC      C33            33.1501661543       27.3801748399       30.8146399770  MEMB      70              0.0000000000
      9377        76  POPC      H3X            32.7117921647       28.3933241670       30.9203395077  MEMB      70              0.0000000000
      9378        76  POPC      H3Y            34.2462709276       27.5073132894       30.8340407403  MEMB      70              0.0000000000
      9379        76  POPC      C34            32.6927742126       26.4989286648       31.9883513876  MEMB      70              0.0000000000
      9380        76  POPC      H4X            32.4086531016       25.4765460755       31.6514481235  MEMB      70              0.0000000000
      9381        76  POPC      H4Y            31.7718966922       26.9485014935       32.4119310039  MEMB      70              0.0000000000
      9382        76  POPC      C35            33.7747096692       26.3590522560       33.0707277319  MEMB      70              0.0000000000
      9383        76  POPC      H5X            34.5344251470       27.1426802331       32.9062637029  MEMB      70              0.0000000000
      9384        76  POPC      H5Y            34.3062538996       25.3950761900       32.9168416809  MEMB      70              0.0000000000
      9385        76  POPC      C36            33.2540807195       26.4742310066       34.5084987117  MEMB      70              0.0000000000
      9386        76  POPC      H6X            32.4132838337       27.2009318712       34.5580778604  MEMB      70              0.0000000000
      9387        76  POPC      H6Y            34.0793316321       26.8216300041       35.1703410683  MEMB      70              0.0000000000
      9388        76  POPC      C37            32.7928934029       25.1208261157       35.0477437373  MEMB      70              0.0000000000
      9389        76  POPC      H7X            33.6768875883       24.4458235703       35.0672027622  MEMB      70              0.0000000000
      9390        76  POPC      H7Y            32.0688777295       24.6461392256       34.3480770916  MEMB      70              0.0000000000
      9391        76  POPC      C38            32.1610558649       25.1813633881       36.4460080486  MEMB      70              0.0000000000
      9392        76  POPC      H8X            31.0544762481       25.1846804209       36.3329707598  MEMB      70              0.0000000000
      9393        76  POPC      H8Y            32.4514527645       26.1068925055       36.9783119629  MEMB      70              0.0000000000
      9394        76  POPC      C39            32.5778791932       23.9659072366       37.2776585442  MEMB      70              0.0000000000
      9395        76  POPC      H9X            33.6139349879       24.1031773258       37.6270934272  MEMB      70              0.0000000000
      9396        76  POPC      H9Y            32.5604866056       23.0750362894       36.6058963237  MEMB      70              0.0000000000
      9397        76  POPC      C310           31.6968828088       23.6524794152       38.4876618193  MEMB      70              0.0000000000
      9398        76  POPC      H10X           31.7226173108       22.5466569895       38.6383991560  MEMB      70              0.0000000000
      9399        76  POPC      H10Y           30.6544555082       23.9305653464       38.2592193762  MEMB      70              0.0000000000
      9400        76  POPC      C311           32.1502961452       24.3219664095       39.7902965003  MEMB      70              0.0000000000
      9401        76  POPC      H11X           31.4716758298       25.1763481553       40.0103284390  MEMB      70              0.0000000000
      9402        76  POPC      H11Y           33.1855911800       24.7105455006       39.6813517800  MEMB      70              0.0000000000
      9403        76  POPC      C312           32.1311668190       23.3595558148       40.9880404943  MEMB      70              0.0000000000
      9404        76  POPC      H12X           32.8316131940       22.5117174555       40.8088177817  MEMB      70              0.0000000000
      9405        76  POPC      H12Y           31.1109826096       22.9345986230       41.0907002066  MEMB      70              0.0000000000
      9406        76  POPC      C313           32.5216987821       24.0788629578       42.2829469737  MEMB      70              0.0000000000
      9407        76  POPC      H13X           32.0690575446       25.0955636385       42.2882088509  MEMB      70              0.0000000000
      9408        76  POPC      H13Y           33.6278405594       24.2058096666       42.2790499032  MEMB      70              0.0000000000
      9409        76  POPC      C314           32.0986653506       23.3704279702       43.5784816630  MEMB      70              0.0000000000
      9410        76  POPC      H14X           32.6381604689       23.8611918875       44.4203529528  MEMB      70              0.0000000000
      9411        76  POPC      H14Y           32.4072375944       22.3037498207       43.5593996720  MEMB      70              0.0000000000
      9412        76  POPC      C315           30.6022349386       23.4928855581       43.8963311726  MEMB      70              0.0000000000
      9413        76  POPC      H15X           30.0152474634       22.8697861221       43.1858033148  MEMB      70              0.0000000000
      9414        76  POPC      H15Y           30.2927839502       24.5535805262       43.7447054706  MEMB      70              0.0000000000
      9415        76  POPC      C316           30.2682507044       23.0815737233       45.3324277576  MEMB      70              0.0000000000
      9416        76  POPC      H16X           29.1863859753       23.2155011476       45.5457236698  MEMB      70              0.0000000000
      9417        76  POPC      H16Y           30.8254545071       23.7016948008       46.0498596897  MEMB      70              0.0000000000
      9418        76  POPC      H16Z           30.5619227689       22.0290757708       45.5251884311  MEMB      70              0.0000000000
      9419        77  POPC      N              35.4325197287       47.1323628504       23.5869515658  MEMB      71              0.0000000000
      9420        77  POPC      C12            36.2066710712       47.0702722336       22.2817191053  MEMB      71              0.0000000000
      9421        77  POPC      H12A           36.6244623650       48.0491733632       22.0687574617  MEMB      71              0.0000000000
      9422        77  POPC      H12B           35.5471641892       46.8117151155       21.4553157254  MEMB      71              0.0000000000
      9423        77  POPC      C13            36.2868593577       47.6798699982       24.6976855875  MEMB      71              0.0000000000
      9424        77  POPC      H13A           36.6248624410       48.6743470495       24.4390477524  MEMB      71              0.0000000000
      9425        77  POPC      H13B           35.7825424939       47.6972293475       25.6526642002  MEMB      71              0.0000000000
      9426        77  POPC      H13C           37.1910939450       47.0742723822       24.7821350458  MEMB      71              0.0000000000
      9427        77  POPC      C14            34.2710848511       48.0340669719       23.4493737207  MEMB      71              0.0000000000
      9428        77  POPC      H14A           34.5787338824       49.0772922899       23.3271989634  MEMB      71              0.0000000000
      9429        77  POPC      H14B           33.6046012140       47.7681990057       22.6408271107  MEMB      71              0.0000000000
      9430        77  POPC      H14C           33.6922561237       48.0494966636       24.3622671946  MEMB      71              0.0000000000
      9431        77  POPC      C15            34.9961921803       45.7598186714       23.9709661351  MEMB      71              0.0000000000
      9432        77  POPC      H15A           34.2575942970       45.3785614617       23.2848106030  MEMB      71              0.0000000000
      9433        77  POPC      H15B           34.6009270804       45.7561560006       24.9743332957  MEMB      71              0.0000000000
      9434        77  POPC      H15C           35.8840718536       45.1272429999       23.9241994479  MEMB      71              0.0000000000
      9435        77  POPC      C11            37.3895092429       46.0952492393       22.2581857215  MEMB      71              0.0000000000
      9436        77  POPC      H11A           37.8414479491       46.1235138736       21.2385890097  MEMB      71              0.0000000000
      9437        77  POPC      H11B           37.0547741005       45.0456444881       22.4232091299  MEMB      71              0.0000000000
      9438        77  POPC      P              39.7132117688       45.7626017370       23.2884113170  MEMB      71              0.0000000000
      9439        77  POPC      O13            40.6959430393       46.8268296617       22.9545314793  MEMB      71              0.0000000000
      9440        77  POPC      O14            39.6034790150       44.5982860651       22.3821540193  MEMB      71              0.0000000000
      9441        77  POPC      O12            38.3216880654       46.4953690449       23.2578578518  MEMB      71              0.0000000000
      9442        77  POPC      O11            39.7590725589       45.4141656043       24.8452291928  MEMB      71              0.0000000000
      9443        77  POPC      C1             39.7913982548       46.5356388196       25.7443884824  MEMB      71              0.0000000000
      9444        77  POPC      HA             38.8185607017       47.0706605345       25.7196177876  MEMB      71              0.0000000000
      9445        77  POPC      HB             40.5876572656       47.2752641516       25.4749275648  MEMB      71              0.0000000000
      9446        77  POPC      C2             40.0329010046       46.1101495740       27.2174633767  MEMB      71              0.0000000000
      9447        77  POPC      HS             41.1243687015       45.9008886381       27.3190720020  MEMB      71              0.0000000000
      9448        77  POPC      O21            39.2355472023       44.9461714400       27.5181306893  MEMB      71              0.0000000000
      9449        77  POPC      C21            39.7154072054       44.1308866526       28.4370270640  MEMB      71              0.0000000000
      9450        77  POPC      O22            40.7469978179       44.2892256319       29.0637498005  MEMB      71              0.0000000000
      9451        77  POPC      C22            38.7633400951       42.9694376356       28.6585352008  MEMB      71              0.0000000000
      9452        77  POPC      H2R            39.2653357650       42.0926128482       28.2105684002  MEMB      71              0.0000000000
      9453        77  POPC      H2S            37.8164728370       43.1592100370       28.1172193047  MEMB      71              0.0000000000
      9454        77  POPC      C3             39.6441803167       47.2987323286       28.1449302454  MEMB      71              0.0000000000
      9455        77  POPC      HX             38.5361213384       47.4112775881       28.1497589787  MEMB      71              0.0000000000
      9456        77  POPC      HY             40.0680161361       48.2293841808       27.7025737589  MEMB      71              0.0000000000
      9457        77  POPC      O31            40.2020488873       47.1438792580       29.4536744378  MEMB      71              0.0000000000
      9458        77  POPC      C31            39.4596987818       46.4668206043       30.3309938495  MEMB      71              0.0000000000
      9459        77  POPC      O32            38.2754253051       46.2346733284       30.2323964386  MEMB      71              0.0000000000
      9460        77  POPC      C32            40.3931613353       46.0400952759       31.4563203942  MEMB      71              0.0000000000
      9461        77  POPC      H2X            40.4310518585       46.8890901932       32.1612221494  MEMB      71              0.0000000000
      9462        77  POPC      H2Y            41.3630962772       45.8587360796       30.9404046887  MEMB      71              0.0000000000
      9463        77  POPC      C23            38.4972068609       42.7443459393       30.1636860990  MEMB      71              0.0000000000
      9464        77  POPC      H3R            38.4849857099       43.7299835736       30.6699627761  MEMB      71              0.0000000000
      9465        77  POPC      H3S            39.3503704821       42.1856433474       30.5974000407  MEMB      71              0.0000000000
      9466        77  POPC      C24            37.1800679220       42.0486385765       30.5608366738  MEMB      71              0.0000000000
      9467        77  POPC      H4R            37.2088853386       41.9516242510       31.6726928379  MEMB      71              0.0000000000
      9468        77  POPC      H4S            37.1502084709       41.0191114708       30.1461907691  MEMB      71              0.0000000000
      9469        77  POPC      C25            35.8790261064       42.7983906451       30.1963020880  MEMB      71              0.0000000000
      9470        77  POPC      H5R            35.0834514953       42.4700667096       30.9042318200  MEMB      71              0.0000000000
      9471        77  POPC      H5S            35.5607184129       42.5038875819       29.1726731026  MEMB      71              0.0000000000
      9472        77  POPC      C26            36.0106042090       44.3309794855       30.2653554905  MEMB      71              0.0000000000
      9473        77  POPC      H6R            36.5092830992       44.6975012057       29.3414688530  MEMB      71              0.0000000000
      9474        77  POPC      H6S            36.6909731672       44.5712003168       31.1103133003  MEMB      71              0.0000000000
      9475        77  POPC      C27            34.7141422337       45.1224109507       30.5011803311  MEMB      71              0.0000000000
      9476        77  POPC      H7R            33.8752101380       44.4086478112       30.6229520259  MEMB      71              0.0000000000
      9477        77  POPC      H7S            34.5047703283       45.7426086862       29.6019080526  MEMB      71              0.0000000000
      9478        77  POPC      C28            34.7847003696       46.0548333489       31.7339780704  MEMB      71              0.0000000000
      9479        77  POPC      H8R            33.8181012527       46.5988542887       31.8216328727  MEMB      71              0.0000000000
      9480        77  POPC      H8S            35.5753664452       46.8154440192       31.5505001313  MEMB      71              0.0000000000
      9481        77  POPC      C29            35.0514211022       45.2640880493       32.9910019557  MEMB      71              0.0000000000
      9482        77  POPC      H91            34.3079792704       44.4804382394       33.1804524818  MEMB      71              0.0000000000
      9483        77  POPC      C210           36.0544043081       45.4184288983       33.8755089509  MEMB      71              0.0000000000
      9484        77  POPC      H101           36.0946273449       44.7348093523       34.7391699090  MEMB      71              0.0000000000
      9485        77  POPC      C211           37.1770189653       46.4301682955       33.8472043608  MEMB      71              0.0000000000
      9486        77  POPC      H11R           37.4043025608       46.7855740676       32.8171764216  MEMB      71              0.0000000000
      9487        77  POPC      H11S           38.1079077963       45.9609432078       34.2349801349  MEMB      71              0.0000000000
      9488        77  POPC      C212           36.8516969050       47.6341829981       34.7547451296  MEMB      71              0.0000000000
      9489        77  POPC      H12R           36.0401520029       48.2449693095       34.2967844755  MEMB      71              0.0000000000
      9490        77  POPC      H12S           37.7522552514       48.2816726749       34.8430653636  MEMB      71              0.0000000000
      9491        77  POPC      C213           36.4079385551       47.1864187249       36.1552130564  MEMB      71              0.0000000000
      9492        77  POPC      H13R           37.1458956920       46.4506750522       36.5497038034  MEMB      71              0.0000000000
      9493        77  POPC      H13S           35.4214939238       46.6745176846       36.0703663922  MEMB      71              0.0000000000
      9494        77  POPC      C214           36.2415339045       48.3201020785       37.1662609718  MEMB      71              0.0000000000
      9495        77  POPC      H14R           35.7036184967       49.1678051018       36.6826062597  MEMB      71              0.0000000000
      9496        77  POPC      H14S           37.2474564985       48.6820438812       37.4739261453  MEMB      71              0.0000000000
      9497        77  POPC      C215           35.4356767490       47.8804969410       38.3998782024  MEMB      71              0.0000000000
      9498        77  POPC      H15R           34.3517867907       47.9028636650       38.1451524390  MEMB      71              0.0000000000
      9499        77  POPC      H15S           35.6072748875       48.6210024212       39.2086262096  MEMB      71              0.0000000000
      9500        77  POPC      C216           35.7819862463       46.4771290793       38.9294987409  MEMB      71              0.0000000000
      9501        77  POPC      H16R           36.8733024542       46.4274781699       39.1265679983  MEMB      71              0.0000000000
      9502        77  POPC      H16S           35.5481974771       45.7058318744       38.1618925747  MEMB      71              0.0000000000
      9503        77  POPC      C217           34.9988987690       46.1211419556       40.1976510971  MEMB      71              0.0000000000
      9504        77  POPC      H17R           35.0389828341       46.9756501774       40.9035561539  MEMB      71              0.0000000000
      9505        77  POPC      H17S           35.4704650448       45.2634734919       40.7190437842  MEMB      71              0.0000000000
      9506        77  POPC      C218           33.5463162443       45.7703153547       39.8996905686  MEMB      71              0.0000000000
      9507        77  POPC      H18R           33.4768249990       45.0131020151       39.0883423319  MEMB      71              0.0000000000
      9508        77  POPC      H18S           33.0205045358       46.6903389541       39.5699768869  MEMB      71              0.0000000000
      9509        77  POPC      H18T           33.0359941136       45.3708430584       40.8021695334  MEMB      71              0.0000000000
      9510        77  POPC      C33            40.2122616041       44.7535728450       32.2790235388  MEMB      71              0.0000000000
      9511        77  POPC      H3X            40.3158552117       43.8550143132       31.6367914090  MEMB      71              0.0000000000
      9512        77  POPC      H3Y            39.2010964586       44.7591597826       32.7307939002  MEMB      71              0.0000000000
      9513        77  POPC      C34            41.3422370737       44.6806430284       33.3243550502  MEMB      71              0.0000000000
      9514        77  POPC      H4X            41.3346190370       45.6307964838       33.9069160469  MEMB      71              0.0000000000
      9515        77  POPC      H4Y            42.3265433604       44.6125610753       32.8127561972  MEMB      71              0.0000000000
      9516        77  POPC      C35            41.2032609537       43.5264286148       34.3096708549  MEMB      71              0.0000000000
      9517        77  POPC      H5X            42.0327340892       43.5688587539       35.0513891789  MEMB      71              0.0000000000
      9518        77  POPC      H5Y            41.2776580723       42.5556289845       33.7741831086  MEMB      71              0.0000000000
      9519        77  POPC      C36            39.8536016743       43.6617695943       35.0010417974  MEMB      71              0.0000000000
      9520        77  POPC      H6X            39.0460710642       43.4083205533       34.2754727562  MEMB      71              0.0000000000
      9521        77  POPC      H6Y            39.7215350361       44.7238871091       35.3140486642  MEMB      71              0.0000000000
      9522        77  POPC      C37            39.6522238077       42.7891949933       36.2233708465  MEMB      71              0.0000000000
      9523        77  POPC      H7X            40.4040782245       43.0507225670       37.0002338588  MEMB      71              0.0000000000
      9524        77  POPC      H7Y            39.8028142892       41.7290307142       35.9399982167  MEMB      71              0.0000000000
      9525        77  POPC      C38            38.2306450762       43.0188008909       36.7486614614  MEMB      71              0.0000000000
      9526        77  POPC      H8X            37.5126621805       42.8877463426       35.9105116287  MEMB      71              0.0000000000
      9527        77  POPC      H8Y            38.1358715736       44.0829569700       37.0569743487  MEMB      71              0.0000000000
      9528        77  POPC      C39            37.8478948065       42.0977093152       37.9125534338  MEMB      71              0.0000000000
      9529        77  POPC      H9X            37.7718865595       41.0550728511       37.5362582768  MEMB      71              0.0000000000
      9530        77  POPC      H9Y            36.8403773320       42.3892968401       38.2827753640  MEMB      71              0.0000000000
      9531        77  POPC      C310           38.8615794633       42.1109503884       39.0646076766  MEMB      71              0.0000000000
      9532        77  POPC      H10X           39.8385562277       41.7351691612       38.6827986921  MEMB      71              0.0000000000
      9533        77  POPC      H10Y           38.5405734617       41.3974912494       39.8551646382  MEMB      71              0.0000000000
      9534        77  POPC      C311           39.0950182390       43.5028581248       39.6691988063  MEMB      71              0.0000000000
      9535        77  POPC      H11X           39.1412825145       44.2969301515       38.8930385045  MEMB      71              0.0000000000
      9536        77  POPC      H11Y           40.0846413292       43.5070880767       40.1724880265  MEMB      71              0.0000000000
      9537        77  POPC      C312           38.0839278575       43.8920740281       40.7435437265  MEMB      71              0.0000000000
      9538        77  POPC      H12X           37.7987194791       42.9899026992       41.3332469191  MEMB      71              0.0000000000
      9539        77  POPC      H12Y           37.1694834456       44.2818709699       40.2591386256  MEMB      71              0.0000000000
      9540        77  POPC      C313           38.6849738649       44.9101883450       41.7137145215  MEMB      71              0.0000000000
      9541        77  POPC      H13X           39.5973649072       44.4559429771       42.1616175756  MEMB      71              0.0000000000
      9542        77  POPC      H13Y           37.9510610193       45.1262955893       42.5230848806  MEMB      71              0.0000000000
      9543        77  POPC      C314           39.1454003422       46.2284955788       41.1084925167  MEMB      71              0.0000000000
      9544        77  POPC      H14X           38.2689848577       46.7391596980       40.6508976688  MEMB      71              0.0000000000
      9545        77  POPC      H14Y           39.9062484060       46.0670068979       40.3112408710  MEMB      71              0.0000000000
      9546        77  POPC      C315           39.7315948041       47.1232067485       42.1981760356  MEMB      71              0.0000000000
      9547        77  POPC      H15X           40.7768454162       46.8301525898       42.4407861120  MEMB      71              0.0000000000
      9548        77  POPC      H15Y           39.1298523751       47.0127148310       43.1299148692  MEMB      71              0.0000000000
      9549        77  POPC      C316           39.6699216851       48.5622886253       41.7591044337  MEMB      71              0.0000000000
      9550        77  POPC      H16X           38.6099705241       48.8361775729       41.5609999609  MEMB      71              0.0000000000
      9551        77  POPC      H16Y           40.2204185735       48.7037972591       40.8058992369  MEMB      71              0.0000000000
      9552        77  POPC      H16Z           40.0684302401       49.2522714490       42.5310817557  MEMB      71              0.0000000000
      9553        78  POPS      N              42.9212071619       18.2577493941       22.0626893022  MEMB      72              0.0000000000
      9554        78  POPS      HN1            42.4632621352       17.3770775247       21.7988297464  MEMB      72              0.0000000000
      9555        78  POPS      HN2            43.7760197924       18.4423962113       21.4767620785  MEMB      72              0.0000000000
      9556        78  POPS      HN3            43.2198639302       18.2436342474       23.0576659553  MEMB      72              0.0000000000
      9557        78  POPS      C12            41.9889273666       19.4192343631       21.8806796384  MEMB      72              0.0000000000
      9558        78  POPS      H12A           41.1951160063       19.1454533652       21.2012615748  MEMB      72              0.0000000000
      9559        78  POPS      C13            42.7535684777       20.6071067785       21.2354242659  MEMB      72              0.0000000000
      9560        78  POPS      O13A           43.9802529155       20.4227620018       21.0128086399  MEMB      72              0.0000000000
      9561        78  POPS      O13B           42.1739057783       21.6646355559       20.8818563080  MEMB      72              0.0000000000
      9562        78  POPS      C11            41.4050716649       19.7142023960       23.2798831170  MEMB      72              0.0000000000
      9563        78  POPS      H11A           42.2000496727       20.2295438410       23.8579832450  MEMB      72              0.0000000000
      9564        78  POPS      H11B           41.1484728776       18.7708040441       23.8149033313  MEMB      72              0.0000000000
      9565        78  POPS      P              39.5813105919       21.1386826290       24.4666721178  MEMB      72              0.0000000000
      9566        78  POPS      O13            39.0741670923       20.0105561500       25.2756378807  MEMB      72              0.0000000000
      9567        78  POPS      O14            38.6381278603       22.1691345371       23.9810381505  MEMB      72              0.0000000000
      9568        78  POPS      O12            40.2328995088       20.5023514582       23.1693727849  MEMB      72              0.0000000000
      9569        78  POPS      O11            40.8472189083       21.8128459042       25.1668438647  MEMB      72              0.0000000000
      9570        78  POPS      C1             41.5592638340       22.7801622061       24.3846931121  MEMB      72              0.0000000000
      9571        78  POPS      HA             40.8591427681       23.4920213704       23.8795271801  MEMB      72              0.0000000000
      9572        78  POPS      HB             42.1614650036       22.2939553087       23.5854605009  MEMB      72              0.0000000000
      9573        78  POPS      C2             42.5343643297       23.6585849602       25.2050346821  MEMB      72              0.0000000000
      9574        78  POPS      HS             43.0780871859       24.2775468198       24.4560306941  MEMB      72              0.0000000000
      9575        78  POPS      O21            43.5078659295       23.0266156860       25.9978694460  MEMB      72              0.0000000000
      9576        78  POPS      C21            43.9159786895       21.8087103329       26.0898632025  MEMB      72              0.0000000000
      9577        78  POPS      O22            43.8354995529       20.8867061698       25.3009301103  MEMB      72              0.0000000000
      9578        78  POPS      C22            44.6663391530       21.7708754037       27.4366814911  MEMB      72              0.0000000000
      9579        78  POPS      H2R            45.5753021676       21.1548653253       27.2983205231  MEMB      72              0.0000000000
      9580        78  POPS      H2S            44.0062274016       21.2786693170       28.1752136267  MEMB      72              0.0000000000
      9581        78  POPS      C3             41.8270081580       24.6456129910       26.1899138043  MEMB      72              0.0000000000
      9582        78  POPS      HX             41.0062980858       25.1321217337       25.6248897535  MEMB      72              0.0000000000
      9583        78  POPS      HY             42.5747678160       25.4402904346       26.4132604155  MEMB      72              0.0000000000
      9584        78  POPS      O31            41.4159024361       24.0787356354       27.4700667202  MEMB      72              0.0000000000
      9585        78  POPS      C31            40.1371830671       23.7070844864       27.5592425910  MEMB      72              0.0000000000
      9586        78  POPS      O32            39.3350971297       23.7578872626       26.6529133175  MEMB      72              0.0000000000
      9587        78  POPS      C32            39.7246140392       23.3986072126       28.9893346994  MEMB      72              0.0000000000
      9588        78  POPS      H2X            39.7279796740       24.3597741133       29.5445937014  MEMB      72              0.0000000000
      9589        78  POPS      H2Y            40.4664270972       22.7250950947       29.4513901965  MEMB      72              0.0000000000
      9590        78  POPS      C23            45.0370440367       23.2198351531       27.8894440467  MEMB      72              0.0000000000
      9591        78  POPS      H3R            44.1118200949       23.8364348102       27.9813902898  MEMB      72              0.0000000000
      9592        78  POPS      H3S            45.6881127987       23.6676892766       27.1002158237  MEMB      72              0.0000000000
      9593        78  POPS      C24            45.7196271941       23.3832486155       29.2319610965  MEMB      72              0.0000000000
      9594        78  POPS      H4R            46.0165010912       24.4474516772       29.3730100246  MEMB      72              0.0000000000
      9595        78  POPS      H4S            46.6484438530       22.7659338848       29.2189655198  MEMB      72              0.0000000000
      9596        78  POPS      C25            44.8518741635       22.9560560646       30.4131881266  MEMB      72              0.0000000000
      9597        78  POPS      H5R            45.5650514408       22.9523115703       31.2642869908  MEMB      72              0.0000000000
      9598        78  POPS      H5S            44.4758569714       21.9268903145       30.2312455563  MEMB      72              0.0000000000
      9599        78  POPS      C26            43.6702835074       23.8204829717       30.8867886678  MEMB      72              0.0000000000
      9600        78  POPS      H6R            42.7858217432       23.6049945696       30.2504391392  MEMB      72              0.0000000000
      9601        78  POPS      H6S            43.9262035514       24.8978869498       30.7886237248  MEMB      72              0.0000000000
      9602        78  POPS      C27            43.3669168871       23.5109554524       32.3738372264  MEMB      72              0.0000000000
      9603        78  POPS      H7R            43.8509493159       24.2611431180       33.0293984032  MEMB      72              0.0000000000
      9604        78  POPS      H7S            43.8485019713       22.5346319659       32.6143545594  MEMB      72              0.0000000000
      9605        78  POPS      C28            41.8937364437       23.3531289195       32.7861477538  MEMB      72              0.0000000000
      9606        78  POPS      H8R            41.9116681395       22.8487129661       33.7748261829  MEMB      72              0.0000000000
      9607        78  POPS      H8S            41.4023499100       22.6447222359       32.0831635913  MEMB      72              0.0000000000
      9608        78  POPS      C29            41.0782988466       24.6116409580       32.9060801921  MEMB      72              0.0000000000
      9609        78  POPS      H91            40.3831178678       24.7642489563       32.0672872564  MEMB      72              0.0000000000
      9610        78  POPS      C210           41.0691033794       25.5050197517       33.9172860183  MEMB      72              0.0000000000
      9611        78  POPS      H101           40.3776069575       26.3579205364       33.8312227845  MEMB      72              0.0000000000
      9612        78  POPS      C211           41.8668368706       25.5070191588       35.2036125130  MEMB      72              0.0000000000
      9613        78  POPS      H11R           42.0934214358       26.5691931752       35.4496248024  MEMB      72              0.0000000000
      9614        78  POPS      H11S           42.8443489677       24.9862548281       35.1002044736  MEMB      72              0.0000000000
      9615        78  POPS      C212           41.1251274904       24.9438384122       36.4319348165  MEMB      72              0.0000000000
      9616        78  POPS      H12R           40.0335795247       25.1210669620       36.3195626732  MEMB      72              0.0000000000
      9617        78  POPS      H12S           41.4289303759       25.5070379726       37.3450247051  MEMB      72              0.0000000000
      9618        78  POPS      C213           41.3872087005       23.4551977144       36.7142914898  MEMB      72              0.0000000000
      9619        78  POPS      H13R           42.3306802773       23.3534761172       37.2951035274  MEMB      72              0.0000000000
      9620        78  POPS      H13S           41.5064900533       22.8796985488       35.7744835784  MEMB      72              0.0000000000
      9621        78  POPS      C214           40.2173674217       22.8403748372       37.4855868363  MEMB      72              0.0000000000
      9622        78  POPS      H14R           39.4358267418       22.5405587335       36.7555038764  MEMB      72              0.0000000000
      9623        78  POPS      H14S           39.7825927031       23.6295184898       38.1257460648  MEMB      72              0.0000000000
      9624        78  POPS      C215           40.5563867126       21.6532644938       38.3870175627  MEMB      72              0.0000000000
      9625        78  POPS      H15R           41.2788654670       20.9878711204       37.8708183872  MEMB      72              0.0000000000
      9626        78  POPS      H15S           39.6238381975       21.0717589255       38.5800747085  MEMB      72              0.0000000000
      9627        78  POPS      C216           41.1205264802       22.0987107484       39.7394373627  MEMB      72              0.0000000000
      9628        78  POPS      H16R           40.3658168855       22.7366359498       40.2490703155  MEMB      72              0.0000000000
      9629        78  POPS      H16S           42.0304325429       22.7110276716       39.5622781773  MEMB      72              0.0000000000
      9630        78  POPS      C217           41.4651726132       20.9115606415       40.6386057134  MEMB      72              0.0000000000
      9631        78  POPS      H17R           41.7916001689       20.0998324967       39.9614155830  MEMB      72              0.0000000000
      9632        78  POPS      H17S           40.5401297714       20.5590718434       41.1436176661  MEMB      72              0.0000000000
      9633        78  POPS      C218           42.5767111447       21.1686405701       41.6591418202  MEMB      72              0.0000000000
      9634        78  POPS      H18R           42.5508383544       22.2173516387       42.0196611053  MEMB      72              0.0000000000
      9635        78  POPS      H18S           43.5686386004       20.9892523074       41.1945318834  MEMB      72              0.0000000000
      9636        78  POPS      H18T           42.4847238782       20.4829678243       42.5287229353  MEMB      72              0.0000000000
      9637        78  POPS      C33            38.2791961724       22.8223424106       29.0131258306  MEMB      72              0.0000000000
      9638        78  POPS      H3X            37.5789447218       23.4636864406       28.4275089739  MEMB      72              0.0000000000
      9639        78  POPS      H3Y            37.9060886544       22.8346757846       30.0592740241  MEMB      72              0.0000000000
      9640        78  POPS      C34            38.1820271433       21.3750160876       28.4963575768  MEMB      72              0.0000000000
      9641        78  POPS      H4X            38.2946661587       21.3675774793       27.3861294295  MEMB      72              0.0000000000
      9642        78  POPS      H4Y            37.1647672797       20.9712708777       28.7014051442  MEMB      72              0.0000000000
      9643        78  POPS      C35            39.2328519973       20.4265984446       29.0933643776  MEMB      72              0.0000000000
      9644        78  POPS      H5X            40.2345955684       20.7181639184       28.7091139087  MEMB      72              0.0000000000
      9645        78  POPS      H5Y            39.0434744409       19.4019474245       28.7036506220  MEMB      72              0.0000000000
      9646        78  POPS      C36            39.2410577810       20.4129411435       30.6304296009  MEMB      72              0.0000000000
      9647        78  POPS      H6X            38.3171051668       19.8958446067       30.9567975501  MEMB      72              0.0000000000
      9648        78  POPS      H6Y            39.2018500919       21.4417694926       31.0430427252  MEMB      72              0.0000000000
      9649        78  POPS      C37            40.4735640750       19.7154251427       31.2165295099  MEMB      72              0.0000000000
      9650        78  POPS      H7X            41.3627243564       20.3778978755       31.1398201782  MEMB      72              0.0000000000
      9651        78  POPS      H7Y            40.6791186852       18.8141748194       30.5935094828  MEMB      72              0.0000000000
      9652        78  POPS      C38            40.2644511239       19.2515965533       32.6672239172  MEMB      72              0.0000000000
      9653        78  POPS      H8X            41.0401435105       18.4926729383       32.9119102388  MEMB      72              0.0000000000
      9654        78  POPS      H8Y            39.2708333005       18.7619553918       32.7307906437  MEMB      72              0.0000000000
      9655        78  POPS      C39            40.2786300992       20.3572523709       33.7310812903  MEMB      72              0.0000000000
      9656        78  POPS      H9X            39.5511576740       21.1516618706       33.4443863723  MEMB      72              0.0000000000
      9657        78  POPS      H9Y            41.2892225590       20.8143935970       33.7793481854  MEMB      72              0.0000000000
      9658        78  POPS      C310           39.9074679162       19.8165830204       35.1222022943  MEMB      72              0.0000000000
      9659        78  POPS      H10X           39.0323723136       19.1390869050       35.0349653118  MEMB      72              0.0000000000
      9660        78  POPS      H10Y           39.5933390541       20.6635827959       35.7680546937  MEMB      72              0.0000000000
      9661        78  POPS      C311           41.0814685361       19.0929768930       35.7987439366  MEMB      72              0.0000000000
      9662        78  POPS      H11X           41.8788664087       19.8431882227       36.0007097306  MEMB      72              0.0000000000
      9663        78  POPS      H11Y           41.5076184446       18.3408553366       35.0991389010  MEMB      72              0.0000000000
      9664        78  POPS      C312           40.7065000310       18.3737655834       37.1074204712  MEMB      72              0.0000000000
      9665        78  POPS      H12X           40.1889867468       17.4397625313       36.8227628887  MEMB      72              0.0000000000
      9666        78  POPS      H12Y           40.0083393954       18.9991973037       37.7019700087  MEMB      72              0.0000000000
      9667        78  POPS      C313           41.9433128717       18.0297235873       37.9497584820  MEMB      72              0.0000000000
      9668        78  POPS      H13X           42.5902396870       18.9378871566       37.9780790444  MEMB      72              0.0000000000
      9669        78  POPS      H13Y           42.5011797152       17.2325292015       37.4215229417  MEMB      72              0.0000000000
      9670        78  POPS      C314           41.7259061551       17.5597252499       39.4015454962  MEMB      72              0.0000000000
      9671        78  POPS      H14X           41.4431992423       16.4847180599       39.4135439925  MEMB      72              0.0000000000
      9672        78  POPS      H14Y           40.8968543062       18.1328099383       39.8685667321  MEMB      72              0.0000000000
      9673        78  POPS      C315           43.0252541814       17.7708275976       40.2067893942  MEMB      72              0.0000000000
      9674        78  POPS      H15X           43.3879397584       18.8134975904       40.0705438560  MEMB      72              0.0000000000
      9675        78  POPS      H15Y           43.7993206996       17.1192205102       39.7714173674  MEMB      72              0.0000000000
      9676        78  POPS      C316           42.9927096089       17.4545282833       41.6964561493  MEMB      72              0.0000000000
      9677        78  POPS      H16X           42.7935057980       16.3727526993       41.8416534238  MEMB      72              0.0000000000
      9678        78  POPS      H16Y           42.2188352415       18.0496982051       42.2231173524  MEMB      72              0.0000000000
      9679        78  POPS      H16Z           43.9834802804       17.6874515379       42.1496290520  MEMB      72              0.0000000000
      9680        79  POPC      N              18.6788306738       31.6256119370       22.7632564109  MEMB      73              0.0000000000
      9681        79  POPC      C12            19.1913773286       32.4685716230       23.9237524875  MEMB      73              0.0000000000
      9682        79  POPC      H12A           20.1412715607       32.9091760430       23.6066418616  MEMB      73              0.0000000000
      9683        79  POPC      H12B           19.4035031980       31.8544601302       24.7864875018  MEMB      73              0.0000000000
      9684        79  POPC      C13            18.3488853324       32.5105345630       21.6061557415  MEMB      73              0.0000000000
      9685        79  POPC      H13A           17.8474985502       31.9892334993       20.8078161571  MEMB      73              0.0000000000
      9686        79  POPC      H13B           17.7336671114       33.3466612014       21.9530440994  MEMB      73              0.0000000000
      9687        79  POPC      H13C           19.2448607529       33.0003200279       21.2210512385  MEMB      73              0.0000000000
      9688        79  POPC      C14            19.7554441689       30.6738458567       22.3279935201  MEMB      73              0.0000000000
      9689        79  POPC      H14A           20.6253928100       31.2148704940       21.9463806140  MEMB      73              0.0000000000
      9690        79  POPC      H14B           20.0929120666       30.0630982862       23.1614616660  MEMB      73              0.0000000000
      9691        79  POPC      H14C           19.3957754727       30.0196502189       21.5345149330  MEMB      73              0.0000000000
      9692        79  POPC      C15            17.4393606658       30.8675252124       23.1546446617  MEMB      73              0.0000000000
      9693        79  POPC      H15A           17.6301597161       30.1656511563       23.9579697432  MEMB      73              0.0000000000
      9694        79  POPC      H15B           17.0512255805       30.2888482855       22.3234609116  MEMB      73              0.0000000000
      9695        79  POPC      H15C           16.6829007119       31.5746660854       23.4741728573  MEMB      73              0.0000000000
      9696        79  POPC      C11            18.3339950090       33.6802231067       24.3475784699  MEMB      73              0.0000000000
      9697        79  POPC      H11A           18.6778465939       34.1111665236       25.3116909201  MEMB      73              0.0000000000
      9698        79  POPC      H11B           17.2752869178       33.3812225231       24.4921696644  MEMB      73              0.0000000000
      9699        79  POPC      P              19.7509471202       35.4108746278       22.9978141544  MEMB      73              0.0000000000
      9700        79  POPC      O13            19.4246227082       36.4337766285       21.9832573533  MEMB      73              0.0000000000
      9701        79  POPC      O14            20.7474145175       34.4088227866       22.5408614646  MEMB      73              0.0000000000
      9702        79  POPC      O12            18.3872932520       34.6743446841       23.3471142780  MEMB      73              0.0000000000
      9703        79  POPC      O11            20.2173509423       36.0133219056       24.4073559851  MEMB      73              0.0000000000
      9704        79  POPC      C1             21.4870478304       36.6634300928       24.5596482394  MEMB      73              0.0000000000
      9705        79  POPC      HA             21.4564959140       37.6741375783       24.0946059423  MEMB      73              0.0000000000
      9706        79  POPC      HB             22.2754405994       36.0647638041       24.0463969136  MEMB      73              0.0000000000
      9707        79  POPC      C2             22.0066874884       36.8224438682       26.0465647269  MEMB      73              0.0000000000
      9708        79  POPC      HS             23.1185866782       36.7386210433       26.0089361024  MEMB      73              0.0000000000
      9709        79  POPC      O21            21.4497367199       35.8335715549       26.9335442941  MEMB      73              0.0000000000
      9710        79  POPC      C21            21.8488410972       34.5979252596       26.7480673641  MEMB      73              0.0000000000
      9711        79  POPC      O22            22.8561869376       34.2468508096       26.1470452800  MEMB      73              0.0000000000
      9712        79  POPC      C22            20.8538787805       33.6745591122       27.4521100832  MEMB      73              0.0000000000
      9713        79  POPC      H2R            19.8670305887       33.8674791649       26.9884882174  MEMB      73              0.0000000000
      9714        79  POPC      H2S            20.7858087685       33.9873348344       28.5132360440  MEMB      73              0.0000000000
      9715        79  POPC      C3             21.7291693045       38.2397167551       26.6657422424  MEMB      73              0.0000000000
      9716        79  POPC      HX             22.1098262027       38.9957480815       25.9438285268  MEMB      73              0.0000000000
      9717        79  POPC      HY             22.3314673255       38.3547698275       27.5935671394  MEMB      73              0.0000000000
      9718        79  POPC      O31            20.3329728902       38.4910203531       26.8881308673  MEMB      73              0.0000000000
      9719        79  POPC      C31            19.8578136803       38.4443430640       28.1302063023  MEMB      73              0.0000000000
      9720        79  POPC      O32            20.5255008358       38.4417793605       29.1496659896  MEMB      73              0.0000000000
      9721        79  POPC      C32            18.3622520099       38.1515147754       28.0498817804  MEMB      73              0.0000000000
      9722        79  POPC      H2X            18.1470859423       37.6705199640       27.0702209592  MEMB      73              0.0000000000
      9723        79  POPC      H2Y            17.8481313251       39.1333350785       28.0814210064  MEMB      73              0.0000000000
      9724        79  POPC      C23            21.1764895775       32.1645336833       27.3524931257  MEMB      73              0.0000000000
      9725        79  POPC      H3R            21.1913599722       31.8405110927       26.2890979555  MEMB      73              0.0000000000
      9726        79  POPC      H3S            20.3458487154       31.6117696453       27.8508535679  MEMB      73              0.0000000000
      9727        79  POPC      C24            22.4963616536       31.7326050711       28.0147215143  MEMB      73              0.0000000000
      9728        79  POPC      H4R            23.3367182899       31.9567686928       27.3170213549  MEMB      73              0.0000000000
      9729        79  POPC      H4S            22.4866692814       30.6254195847       28.1544365047  MEMB      73              0.0000000000
      9730        79  POPC      C25            22.7864130317       32.3890637936       29.3689633402  MEMB      73              0.0000000000
      9731        79  POPC      H5R            22.8564959993       33.4934727242       29.2686426066  MEMB      73              0.0000000000
      9732        79  POPC      H5S            23.7847880737       32.0408983769       29.7136997442  MEMB      73              0.0000000000
      9733        79  POPC      C26            21.7653886761       32.0466851120       30.4622670640  MEMB      73              0.0000000000
      9734        79  POPC      H6R            21.6204046611       30.9429332276       30.4841881263  MEMB      73              0.0000000000
      9735        79  POPC      H6S            20.7848702062       32.5202630431       30.2461665694  MEMB      73              0.0000000000
      9736        79  POPC      C27            22.2854781881       32.5155781441       31.8252708663  MEMB      73              0.0000000000
      9737        79  POPC      H7R            22.5766175007       33.5881978009       31.7394623267  MEMB      73              0.0000000000
      9738        79  POPC      H7S            23.2002991194       31.9216802372       32.0248112104  MEMB      73              0.0000000000
      9739        79  POPC      C28            21.3242351774       32.3850973995       33.0182250751  MEMB      73              0.0000000000
      9740        79  POPC      H8R            20.5829640152       33.2029559160       32.9481592371  MEMB      73              0.0000000000
      9741        79  POPC      H8S            21.8890714520       32.5686920844       33.9596728310  MEMB      73              0.0000000000
      9742        79  POPC      C29            20.6294934947       31.0577687397       33.0894260799  MEMB      73              0.0000000000
      9743        79  POPC      H91            21.2217191432       30.2479091980       33.5437943094  MEMB      73              0.0000000000
      9744        79  POPC      C210           19.3642763519       30.8178171178       32.6907460435  MEMB      73              0.0000000000
      9745        79  POPC      H101           18.9390037944       29.8114934166       32.8082730000  MEMB      73              0.0000000000
      9746        79  POPC      C211           18.4094087936       31.8202495235       32.1041540399  MEMB      73              0.0000000000
      9747        79  POPC      H11R           17.9909443092       31.4375825878       31.1480480900  MEMB      73              0.0000000000
      9748        79  POPC      H11S           18.9232083370       32.7658348999       31.8559973764  MEMB      73              0.0000000000
      9749        79  POPC      C212           17.2649826513       32.1094795538       33.0903530130  MEMB      73              0.0000000000
      9750        79  POPC      H12R           16.7186957338       31.1570032808       33.2645129010  MEMB      73              0.0000000000
      9751        79  POPC      H12S           16.5413884498       32.8127769088       32.6216402671  MEMB      73              0.0000000000
      9752        79  POPC      C213           17.7309904331       32.7070602050       34.4344582766  MEMB      73              0.0000000000
      9753        79  POPC      H13R           17.8740460643       33.8026258076       34.3138108051  MEMB      73              0.0000000000
      9754        79  POPC      H13S           18.7139534262       32.2929457783       34.7426374530  MEMB      73              0.0000000000
      9755        79  POPC      C214           16.7507085801       32.4435003989       35.5801025038  MEMB      73              0.0000000000
      9756        79  POPC      H14R           15.7286900684       32.7371139462       35.2446777601  MEMB      73              0.0000000000
      9757        79  POPC      H14S           17.0125576222       33.0862659733       36.4489961689  MEMB      73              0.0000000000
      9758        79  POPC      C215           16.7131803339       30.9741784123       36.0350306183  MEMB      73              0.0000000000
      9759        79  POPC      H15R           16.4600838721       30.3196559764       35.1750479495  MEMB      73              0.0000000000
      9760        79  POPC      H15S           15.8872115439       30.8986072905       36.7747544373  MEMB      73              0.0000000000
      9761        79  POPC      C216           17.9882980246       30.3948284294       36.6766912916  MEMB      73              0.0000000000
      9762        79  POPC      H16R           18.7649247242       30.2036813237       35.9065689286  MEMB      73              0.0000000000
      9763        79  POPC      H16S           17.7014433628       29.4081279968       37.1111917782  MEMB      73              0.0000000000
      9764        79  POPC      C217           18.5765681629       31.2604282674       37.7931094172  MEMB      73              0.0000000000
      9765        79  POPC      H17R           17.7340436738       31.8251991092       38.2371393367  MEMB      73              0.0000000000
      9766        79  POPC      H17S           19.2781747223       32.0082867481       37.3596462242  MEMB      73              0.0000000000
      9767        79  POPC      C218           19.2633389392       30.4557352469       38.8988161369  MEMB      73              0.0000000000
      9768        79  POPC      H18R           18.6034304944       29.6427591796       39.2617261200  MEMB      73              0.0000000000
      9769        79  POPC      H18S           19.5216186950       31.1103690097       39.7602585368  MEMB      73              0.0000000000
      9770        79  POPC      H18T           20.1891564171       29.9821355572       38.5148181123  MEMB      73              0.0000000000
      9771        79  POPC      C33            17.8652352052       37.2404712217       29.1983051421  MEMB      73              0.0000000000
      9772        79  POPC      H3X            16.7578915531       37.1992042914       29.1476392594  MEMB      73              0.0000000000
      9773        79  POPC      H3Y            18.1508025923       37.6928923217       30.1734076518  MEMB      73              0.0000000000
      9774        79  POPC      C34            18.3800690979       35.7967351529       29.0949183787  MEMB      73              0.0000000000
      9775        79  POPC      H4X            19.4845412661       35.8180818217       28.9581333124  MEMB      73              0.0000000000
      9776        79  POPC      H4Y            17.9513572318       35.3232061252       28.1829717301  MEMB      73              0.0000000000
      9777        79  POPC      C35            18.0503511651       34.9211889347       30.3117496656  MEMB      73              0.0000000000
      9778        79  POPC      H5X            18.4799759943       33.9119211216       30.1155379708  MEMB      73              0.0000000000
      9779        79  POPC      H5Y            16.9505383546       34.7951814496       30.4051325921  MEMB      73              0.0000000000
      9780        79  POPC      C36            18.6283923969       35.4531132858       31.6370133212  MEMB      73              0.0000000000
      9781        79  POPC      H6X            18.4245565380       34.7146150014       32.4397863181  MEMB      73              0.0000000000
      9782        79  POPC      H6Y            18.1185193216       36.3931549517       31.9344729495  MEMB      73              0.0000000000
      9783        79  POPC      C37            20.1435104540       35.6872346070       31.5568532824  MEMB      73              0.0000000000
      9784        79  POPC      H7X            20.3549857301       36.5680384492       30.9104861313  MEMB      73              0.0000000000
      9785        79  POPC      H7Y            20.5999160294       34.7983503764       31.0655739644  MEMB      73              0.0000000000
      9786        79  POPC      C38            20.8346517846       35.8862086808       32.9122364832  MEMB      73              0.0000000000
      9787        79  POPC      H8X            21.9238505949       35.7142996600       32.7510894924  MEMB      73              0.0000000000
      9788        79  POPC      H8Y            20.4805610075       35.1414832745       33.6563863227  MEMB      73              0.0000000000
      9789        79  POPC      C39            20.6514668830       37.2881424145       33.4922264411  MEMB      73              0.0000000000
      9790        79  POPC      H9X            19.7190130753       37.2973517536       34.0943999031  MEMB      73              0.0000000000
      9791        79  POPC      H9Y            20.5232840120       38.0065467134       32.6497675285  MEMB      73              0.0000000000
      9792        79  POPC      C310           21.8462919738       37.7625043632       34.3379914242  MEMB      73              0.0000000000
      9793        79  POPC      H10X           21.6298478168       38.7825553131       34.7288662266  MEMB      73              0.0000000000
      9794        79  POPC      H10Y           22.7239553646       37.8442464577       33.6563443806  MEMB      73              0.0000000000
      9795        79  POPC      C311           22.2156897081       36.8348715573       35.5069764007  MEMB      73              0.0000000000
      9796        79  POPC      H11X           23.1864071396       37.1695920919       35.9395695500  MEMB      73              0.0000000000
      9797        79  POPC      H11Y           22.3641604005       35.7967672803       35.1365148333  MEMB      73              0.0000000000
      9798        79  POPC      C312           21.1668557246       36.8291139863       36.6267335530  MEMB      73              0.0000000000
      9799        79  POPC      H12X           20.1705934473       36.5681798284       36.2066931229  MEMB      73              0.0000000000
      9800        79  POPC      H12Y           21.0913369564       37.8538804258       37.0558054801  MEMB      73              0.0000000000
      9801        79  POPC      C313           21.5040070983       35.8336951377       37.7441223877  MEMB      73              0.0000000000
      9802        79  POPC      H13X           22.5100547917       36.0722585807       38.1558291914  MEMB      73              0.0000000000
      9803        79  POPC      H13Y           21.5479281059       34.8071164817       37.3144642676  MEMB      73              0.0000000000
      9804        79  POPC      C314           20.4645040686       35.8662804780       38.8714552775  MEMB      73              0.0000000000
      9805        79  POPC      H14X           19.4467015292       35.7915226531       38.4245908105  MEMB      73              0.0000000000
      9806        79  POPC      H14Y           20.5312420644       36.8521385832       39.3858245941  MEMB      73              0.0000000000
      9807        79  POPC      C315           20.6279336909       34.7368496044       39.8992641003  MEMB      73              0.0000000000
      9808        79  POPC      H15X           20.4690276370       33.7604649293       39.3863294629  MEMB      73              0.0000000000
      9809        79  POPC      H15Y           19.8299041438       34.8333626515       40.6684909005  MEMB      73              0.0000000000
      9810        79  POPC      C316           21.9829913980       34.7164582363       40.6058591992  MEMB      73              0.0000000000
      9811        79  POPC      H16X           22.2131175107       35.6960030825       41.0663916167  MEMB      73              0.0000000000
      9812        79  POPC      H16Y           22.7963574667       34.4819421727       39.8876798045  MEMB      73              0.0000000000
      9813        79  POPC      H16Z           21.9865576695       33.9507090960       41.4109301082  MEMB      73              0.0000000000
      9814        80  POPC      N              45.1852364132       32.6695122139       22.2020895816  MEMB      74              0.0000000000
      9815        80  POPC      C12            44.2725778158       33.5555598203       23.0442374447  MEMB      74              0.0000000000
      9816        80  POPC      H12A           43.3446406058       33.0608218014       23.3003253595  MEMB      74              0.0000000000
      9817        80  POPC      H12B           44.0061065039       34.4218309299       22.4446501894  MEMB      74              0.0000000000
      9818        80  POPC      C13            46.0282379265       31.8167153091       23.1022035993  MEMB      74              0.0000000000
      9819        80  POPC      H13A           45.4288735065       31.1932467636       23.7481296847  MEMB      74              0.0000000000
      9820        80  POPC      H13B           46.7777327326       31.2556242141       22.5525564088  MEMB      74              0.0000000000
      9821        80  POPC      H13C           46.5728973369       32.4767592153       23.7986836778  MEMB      74              0.0000000000
      9822        80  POPC      C14            44.3962905137       31.8732090064       21.2190723374  MEMB      74              0.0000000000
      9823        80  POPC      H14A           43.9147293314       32.5551528689       20.5181443026  MEMB      74              0.0000000000
      9824        80  POPC      H14B           45.0141139594       31.1938012706       20.6420480656  MEMB      74              0.0000000000
      9825        80  POPC      H14C           43.6119924375       31.3115175207       21.7116425530  MEMB      74              0.0000000000
      9826        80  POPC      C15            46.1253355498       33.6015311644       21.4802457669  MEMB      74              0.0000000000
      9827        80  POPC      H15A           46.6684355801       34.1888972601       22.2380312747  MEMB      74              0.0000000000
      9828        80  POPC      H15B           45.5947822651       34.3407821180       20.8973712564  MEMB      74              0.0000000000
      9829        80  POPC      H15C           46.8338084338       33.0704692790       20.8693758369  MEMB      74              0.0000000000
      9830        80  POPC      C11            44.8926442244       34.1441265485       24.3259348303  MEMB      74              0.0000000000
      9831        80  POPC      H11A           45.1833284754       33.3429490645       25.0453530992  MEMB      74              0.0000000000
      9832        80  POPC      H11B           44.1065780831       34.7499882354       24.8208891308  MEMB      74              0.0000000000
      9833        80  POPC      P              47.0574224978       35.4034776486       25.0517964255  MEMB      74              0.0000000000
      9834        80  POPC      O13            48.1040154918       36.1759730885       24.3790903263  MEMB      74              0.0000000000
      9835        80  POPC      O14            47.4393088515       34.1906710590       25.8027178456  MEMB      74              0.0000000000
      9836        80  POPC      O12            45.9882320120       34.9809220444       23.9646995352  MEMB      74              0.0000000000
      9837        80  POPC      O11            46.1877346122       36.3798755532       25.9744896955  MEMB      74              0.0000000000
      9838        80  POPC      C1             45.2084400367       37.2589508736       25.3957859415  MEMB      74              0.0000000000
      9839        80  POPC      HA             44.7110068584       36.8504917266       24.4856327110  MEMB      74              0.0000000000
      9840        80  POPC      HB             45.7290457781       38.1784604545       25.0534248299  MEMB      74              0.0000000000
      9841        80  POPC      C2             44.0543603863       37.6412132592       26.3929322320  MEMB      74              0.0000000000
      9842        80  POPC      HS             43.5323845835       38.5308051123       25.9686539322  MEMB      74              0.0000000000
      9843        80  POPC      O21            44.5503275192       37.9496712599       27.7136942101  MEMB      74              0.0000000000
      9844        80  POPC      C21            45.4252601701       38.9250113376       27.7605301288  MEMB      74              0.0000000000
      9845        80  POPC      O22            45.6753921002       39.7133414825       26.8652784571  MEMB      74              0.0000000000
      9846        80  POPC      C22            46.0931619814       39.0293085488       29.1370159459  MEMB      74              0.0000000000
      9847        80  POPC      H2R            45.6415521936       39.8944140298       29.6367895053  MEMB      74              0.0000000000
      9848        80  POPC      H2S            47.1504401034       39.2898260809       28.9391716024  MEMB      74              0.0000000000
      9849        80  POPC      C3             42.9617364886       36.5216746520       26.5280334036  MEMB      74              0.0000000000
      9850        80  POPC      HX             42.5221179069       36.3535568136       25.5175193058  MEMB      74              0.0000000000
      9851        80  POPC      HY             42.1346003739       36.9085281486       27.1612278940  MEMB      74              0.0000000000
      9852        80  POPC      O31            43.4971369522       35.2683163321       27.0047718138  MEMB      74              0.0000000000
      9853        80  POPC      C31            43.3049599568       34.9191550443       28.2630926169  MEMB      74              0.0000000000
      9854        80  POPC      O32            42.5687212886       35.4619506116       29.0698904474  MEMB      74              0.0000000000
      9855        80  POPC      C32            44.2003864334       33.7121770650       28.5845144827  MEMB      74              0.0000000000
      9856        80  POPC      H2X            44.3702015927       33.1119054671       27.6689625450  MEMB      74              0.0000000000
      9857        80  POPC      H2Y            43.6431515166       33.1002924538       29.3230164810  MEMB      74              0.0000000000
      9858        80  POPC      C23            46.0358631993       37.8086120674       30.0917464316  MEMB      74              0.0000000000
      9859        80  POPC      H3R            46.9926429160       37.7744655307       30.6615398554  MEMB      74              0.0000000000
      9860        80  POPC      H3S            45.9831951708       36.8795342901       29.4959029759  MEMB      74              0.0000000000
      9861        80  POPC      C24            44.8914682622       37.9106057113       31.1195710077  MEMB      74              0.0000000000
      9862        80  POPC      H4R            43.9328876007       37.7392978125       30.5820764170  MEMB      74              0.0000000000
      9863        80  POPC      H4S            44.8656711253       38.9376077704       31.5325099242  MEMB      74              0.0000000000
      9864        80  POPC      C25            45.0028790182       36.9328922283       32.3057262597  MEMB      74              0.0000000000
      9865        80  POPC      H5R            45.9463606248       37.0962740251       32.8686636160  MEMB      74              0.0000000000
      9866        80  POPC      H5S            45.0384942863       35.9223164398       31.8639536354  MEMB      74              0.0000000000
      9867        80  POPC      C26            43.8074240185       36.9395580059       33.2805073403  MEMB      74              0.0000000000
      9868        80  POPC      H6R            43.9327484800       36.1557036875       34.0561718075  MEMB      74              0.0000000000
      9869        80  POPC      H6S            42.9116757282       36.6567407595       32.6768509082  MEMB      74              0.0000000000
      9870        80  POPC      C27            43.5070686492       38.2935550805       33.9398710208  MEMB      74              0.0000000000
      9871        80  POPC      H7R            42.4605414436       38.5276640223       33.7087488663  MEMB      74              0.0000000000
      9872        80  POPC      H7S            44.1133598720       39.0971139349       33.4671142332  MEMB      74              0.0000000000
      9873        80  POPC      C28            43.7037727388       38.4330284433       35.4640804163  MEMB      74              0.0000000000
      9874        80  POPC      H8R            43.2867595011       39.4310175556       35.7341138284  MEMB      74              0.0000000000
      9875        80  POPC      H8S            44.7944540575       38.5238134237       35.5869047758  MEMB      74              0.0000000000
      9876        80  POPC      C29            43.1849816436       37.4351715473       36.4634882214  MEMB      74              0.0000000000
      9877        80  POPC      H91            42.0909263018       37.3551804024       36.5637386300  MEMB      74              0.0000000000
      9878        80  POPC      C210           43.9803210807       36.6364209924       37.1952590434  MEMB      74              0.0000000000
      9879        80  POPC      H101           43.5262365887       35.9824706097       37.9576381985  MEMB      74              0.0000000000
      9880        80  POPC      C211           45.4917522084       36.5996143479       37.1282233177  MEMB      74              0.0000000000
      9881        80  POPC      H11R           45.8398482457       36.7085341721       36.0753261575  MEMB      74              0.0000000000
      9882        80  POPC      H11S           45.8013534920       35.5904051477       37.4268423456  MEMB      74              0.0000000000
      9883        80  POPC      C212           46.3721602546       37.4990865352       38.0222611352  MEMB      74              0.0000000000
      9884        80  POPC      H12R           46.4683533790       38.5133735229       37.5969998846  MEMB      74              0.0000000000
      9885        80  POPC      H12S           47.3940754410       37.0565486391       38.0051463580  MEMB      74              0.0000000000
      9886        80  POPC      C213           45.9147256941       37.6096296867       39.4797016553  MEMB      74              0.0000000000
      9887        80  POPC      H13R           44.9541179297       37.0727517008       39.6025563908  MEMB      74              0.0000000000
      9888        80  POPC      H13S           45.7264000440       38.6780534349       39.7089399245  MEMB      74              0.0000000000
      9889        80  POPC      C214           46.9424585963       37.0421400233       40.4633904813  MEMB      74              0.0000000000
      9890        80  POPC      H14R           47.9188487997       37.5537631780       40.3044229372  MEMB      74              0.0000000000
      9891        80  POPC      H14S           47.0910020813       35.9686386060       40.2246759908  MEMB      74              0.0000000000
      9892        80  POPC      C215           46.5829975476       37.1340420056       41.9546064207  MEMB      74              0.0000000000
      9893        80  POPC      H15R           47.2046071325       37.9353472914       42.4078913388  MEMB      74              0.0000000000
      9894        80  POPC      H15S           46.8958088831       36.1736629889       42.4246320733  MEMB      74              0.0000000000
      9895        80  POPC      C216           45.1066977493       37.3814473084       42.3094332879  MEMB      74              0.0000000000
      9896        80  POPC      H16R           44.9908715170       37.0953781326       43.3813619477  MEMB      74              0.0000000000
      9897        80  POPC      H16S           44.4265314392       36.7218907356       41.7365218410  MEMB      74              0.0000000000
      9898        80  POPC      C217           44.6782261050       38.8514606865       42.1804298633  MEMB      74              0.0000000000
      9899        80  POPC      H17R           44.1049018850       39.0009889764       41.2377999803  MEMB      74              0.0000000000
      9900        80  POPC      H17S           45.5965163568       39.4745220621       42.0875522964  MEMB      74              0.0000000000
      9901        80  POPC      C218           43.8579050158       39.3284458708       43.3776431219  MEMB      74              0.0000000000
      9902        80  POPC      H18R           42.7819979352       39.1761769146       43.1965424789  MEMB      74              0.0000000000
      9903        80  POPC      H18S           43.9706671167       40.4025933991       43.5725189249  MEMB      74              0.0000000000
      9904        80  POPC      H18T           44.1599028490       38.8076615531       44.3089151746  MEMB      74              0.0000000000
      9905        80  POPC      C33            45.5459494124       34.1644080464       29.1988317523  MEMB      74              0.0000000000
      9906        80  POPC      H3X            45.3409265342       35.0617353860       29.8216107671  MEMB      74              0.0000000000
      9907        80  POPC      H3Y            46.2523819306       34.4726969446       28.3917622112  MEMB      74              0.0000000000
      9908        80  POPC      C34            46.1956291074       33.1510364640       30.1583652924  MEMB      74              0.0000000000
      9909        80  POPC      H4X            47.2864243913       33.0847703632       29.9343135969  MEMB      74              0.0000000000
      9910        80  POPC      H4Y            45.7470335809       32.1474333812       30.0082715287  MEMB      74              0.0000000000
      9911        80  POPC      C35            46.0230653863       33.6225353104       31.6146024314  MEMB      74              0.0000000000
      9912        80  POPC      H5X            44.9501460829       33.8755901244       31.7731518295  MEMB      74              0.0000000000
      9913        80  POPC      H5Y            46.6258161982       34.5565366025       31.7223876335  MEMB      74              0.0000000000
      9914        80  POPC      C36            46.4312725787       32.6313332711       32.7048968937  MEMB      74              0.0000000000
      9915        80  POPC      H6X            47.2537627468       32.0006965045       32.2877594623  MEMB      74              0.0000000000
      9916        80  POPC      H6Y            45.5849745799       31.9542816234       32.9474394182  MEMB      74              0.0000000000
      9917        80  POPC      C37            46.9805448517       33.2951482895       33.9868570210  MEMB      74              0.0000000000
      9918        80  POPC      H7X            47.5028391282       34.2462198900       33.7485279810  MEMB      74              0.0000000000
      9919        80  POPC      H7Y            47.7474683028       32.5746902113       34.3555768269  MEMB      74              0.0000000000
      9920        80  POPC      C38            46.0146786247       33.5270022164       35.1678135907  MEMB      74              0.0000000000
      9921        80  POPC      H8X            45.1861278671       32.7928987685       35.1109446427  MEMB      74              0.0000000000
      9922        80  POPC      H8Y            45.5635388123       34.5393885274       35.1002704257  MEMB      74              0.0000000000
      9923        80  POPC      C39            46.7452798010       33.3726112835       36.5237377166  MEMB      74              0.0000000000
      9924        80  POPC      H9X            47.3579045445       34.2825521306       36.6949933963  MEMB      74              0.0000000000
      9925        80  POPC      H9Y            47.4775025568       32.5471635613       36.4278083227  MEMB      74              0.0000000000
      9926        80  POPC      C310           45.8495057039       33.1129932880       37.7642563750  MEMB      74              0.0000000000
      9927        80  POPC      H10X           45.4181016345       32.0916012227       37.7402524721  MEMB      74              0.0000000000
      9928        80  POPC      H10Y           44.9883838913       33.8084400269       37.7331344648  MEMB      74              0.0000000000
      9929        80  POPC      C311           46.6316266366       33.3173988001       39.0812771638  MEMB      74              0.0000000000
      9930        80  POPC      H11X           47.1814736337       34.2770099973       38.9896699484  MEMB      74              0.0000000000
      9931        80  POPC      H11Y           47.4036891135       32.5204684939       39.1811626925  MEMB      74              0.0000000000
      9932        80  POPC      C312           45.8182107315       33.3443426269       40.3938621753  MEMB      74              0.0000000000
      9933        80  POPC      H12X           46.4466128608       33.8176278459       41.1850996255  MEMB      74              0.0000000000
      9934        80  POPC      H12Y           45.6344908800       32.3010628271       40.7214523701  MEMB      74              0.0000000000
      9935        80  POPC      C313           44.4635308067       34.0682066926       40.3641806489  MEMB      74              0.0000000000
      9936        80  POPC      H13X           43.8050915491       33.6156171284       39.5922350369  MEMB      74              0.0000000000
      9937        80  POPC      H13Y           44.6105323953       35.1308296373       40.0949206480  MEMB      74              0.0000000000
      9938        80  POPC      C314           43.7578014744       33.9783680514       41.7278128540  MEMB      74              0.0000000000
      9939        80  POPC      H14X           44.3806748052       34.4869260775       42.4969730345  MEMB      74              0.0000000000
      9940        80  POPC      H14Y           43.6875226312       32.9094790963       42.0082997647  MEMB      74              0.0000000000
      9941        80  POPC      C315           42.3437688925       34.5698232929       41.7491350556  MEMB      74              0.0000000000
      9942        80  POPC      H15X           42.1584242244       35.0298765934       40.7600555804  MEMB      74              0.0000000000
      9943        80  POPC      H15Y           42.3032383676       35.3874927848       42.5035003347  MEMB      74              0.0000000000
      9944        80  POPC      C316           41.2268951178       33.5578302452       42.0295311128  MEMB      74              0.0000000000
      9945        80  POPC      H16X           41.6048029626       32.6985760584       42.6196725677  MEMB      74              0.0000000000
      9946        80  POPC      H16Y           40.8110342101       33.1733542430       41.0748132921  MEMB      74              0.0000000000
      9947        80  POPC      H16Z           40.4024976407       34.0310771912       42.6048088656  MEMB      74              0.0000000000
      9948        81  POPC      N              19.7878374718       23.9237090651       22.7542627206  MEMB      75              0.0000000000
      9949        81  POPC      C12            19.4367020828       25.3863210759       22.5671156783  MEMB      75              0.0000000000
      9950        81  POPC      H12A           18.3767018080       25.5129521942       22.7472324711  MEMB      75              0.0000000000
      9951        81  POPC      H12B           19.6295475424       25.6505619537       21.5313074394  MEMB      75              0.0000000000
      9952        81  POPC      C13            21.1934445742       23.6602250296       22.3290065222  MEMB      75              0.0000000000
      9953        81  POPC      H13A           21.2721375845       23.6636209741       21.2435950981  MEMB      75              0.0000000000
      9954        81  POPC      H13B           21.8247947659       24.4647926449       22.7127980951  MEMB      75              0.0000000000
      9955        81  POPC      H13C           21.5724321035       22.7324822591       22.7190145720  MEMB      75              0.0000000000
      9956        81  POPC      C14            19.6609072960       23.5487478289       24.1969081847  MEMB      75              0.0000000000
      9957        81  POPC      H14A           20.3127600487       24.1685868528       24.8036269192  MEMB      75              0.0000000000
      9958        81  POPC      H14B           18.6307147129       23.6438488078       24.5340780222  MEMB      75              0.0000000000
      9959        81  POPC      H14C           19.9072240024       22.5057588725       24.3357986740  MEMB      75              0.0000000000
      9960        81  POPC      C15            18.8544923106       23.1050192521       21.9339615147  MEMB      75              0.0000000000
      9961        81  POPC      H15A           19.0851976411       22.0483244160       22.0370473663  MEMB      75              0.0000000000
      9962        81  POPC      H15B           18.8716238081       23.3772556546       20.8868558903  MEMB      75              0.0000000000
      9963        81  POPC      H15C           17.8406202166       23.2122950234       22.3181073891  MEMB      75              0.0000000000
      9964        81  POPC      C11            20.1690077923       26.3983097867       23.4676580790  MEMB      75              0.0000000000
      9965        81  POPC      H11A           19.9003651505       26.1449293798       24.5256133136  MEMB      75              0.0000000000
      9966        81  POPC      H11B           19.7699631245       27.4192212188       23.2801426675  MEMB      75              0.0000000000
      9967        81  POPC      P              22.5349044910       26.7438630608       24.4346614011  MEMB      75              0.0000000000
      9968        81  POPC      O13            21.6904050096       27.3237877503       25.5003921067  MEMB      75              0.0000000000
      9969        81  POPC      O14            23.6801211101       27.5356132987       23.9658446868  MEMB      75              0.0000000000
      9970        81  POPC      O12            21.5760005065       26.3908363697       23.2004284804  MEMB      75              0.0000000000
      9971        81  POPC      O11            23.0473882142       25.3088680165       24.9326757224  MEMB      75              0.0000000000
      9972        81  POPC      C1             24.4628006833       25.0380619488       25.0211922424  MEMB      75              0.0000000000
      9973        81  POPC      HA             25.1077475840       25.9442487333       24.9090592408  MEMB      75              0.0000000000
      9974        81  POPC      HB             24.7344558385       24.3587095371       24.1844969869  MEMB      75              0.0000000000
      9975        81  POPC      C2             24.9602745774       24.3509845060       26.3513750337  MEMB      75              0.0000000000
      9976        81  POPC      HS             25.8979162670       23.7941032569       26.1047729928  MEMB      75              0.0000000000
      9977        81  POPC      O21            24.0040032871       23.4549111470       26.9591357829  MEMB      75              0.0000000000
      9978        81  POPC      C21            23.5398409831       22.4868194488       26.1893906811  MEMB      75              0.0000000000
      9979        81  POPC      O22            23.9360660055       22.1487408544       25.0915551401  MEMB      75              0.0000000000
      9980        81  POPC      C22            22.3682810811       21.7599071931       26.8444140118  MEMB      75              0.0000000000
      9981        81  POPC      H2R            22.6734650112       20.7091524464       27.0217635395  MEMB      75              0.0000000000
      9982        81  POPC      H2S            21.5633665320       21.7501708325       26.0769396101  MEMB      75              0.0000000000
      9983        81  POPC      C3             25.3939537640       25.4076676954       27.4357139586  MEMB      75              0.0000000000
      9984        81  POPC      HX             26.2041083605       26.0149498844       26.9752553264  MEMB      75              0.0000000000
      9985        81  POPC      HY             25.8327269976       24.8363943810       28.2787744128  MEMB      75              0.0000000000
      9986        81  POPC      O31            24.3702551290       26.3246418592       27.8693210051  MEMB      75              0.0000000000
      9987        81  POPC      C31            24.2105526354       26.5273658746       29.1729316234  MEMB      75              0.0000000000
      9988        81  POPC      O32            24.7496883159       25.9003812923       30.0732541611  MEMB      75              0.0000000000
      9989        81  POPC      C32            23.2452339126       27.7176884470       29.3713773629  MEMB      75              0.0000000000
      9990        81  POPC      H2X            22.5901455609       27.7547556391       28.4699933747  MEMB      75              0.0000000000
      9991        81  POPC      H2Y            23.8176355143       28.6634597332       29.4120418087  MEMB      75              0.0000000000
      9992        81  POPC      C23            21.7845439528       22.3677592432       28.1349226364  MEMB      75              0.0000000000
      9993        81  POPC      H3R            21.6309844394       23.4643355255       28.0144244353  MEMB      75              0.0000000000
      9994        81  POPC      H3S            22.4764175096       22.2037878644       28.9910887290  MEMB      75              0.0000000000
      9995        81  POPC      C24            20.4333599563       21.6976457643       28.4114364425  MEMB      75              0.0000000000
      9996        81  POPC      H4R            20.5870326244       20.5954260626       28.4623244821  MEMB      75              0.0000000000
      9997        81  POPC      H4S            19.7550341607       21.9158387946       27.5559132018  MEMB      75              0.0000000000
      9998        81  POPC      C25            19.7327924012       22.1559737624       29.6916681782  MEMB      75              0.0000000000
      9999        81  POPC      H5R            20.4489431658       22.0457023934       30.5313587828  MEMB      75              0.0000000000
     10000        81  POPC      H5S            18.8740134640       21.4762216944       29.8943510650  MEMB      75              0.0000000000
     10001        81  POPC      C26            19.2008591462       23.5951371200       29.5858432380  MEMB      75              0.0000000000
     10002        81  POPC      H6R            18.4593868552       23.6351541258       28.7547271371  MEMB      75              0.0000000000
     10003        81  POPC      H6S            20.0395475658       24.2743243630       29.3106511340  MEMB      75              0.0000000000
     10004        81  POPC      C27            18.5213249345       24.1329830407       30.8642879542  MEMB      75              0.0000000000
     10005        81  POPC      H7R            17.5265451452       23.6543229149       30.9835169822  MEMB      75              0.0000000000
     10006        81  POPC      H7S            18.3402280600       25.2219990964       30.7110714908  MEMB      75              0.0000000000
     10007        81  POPC      C28            19.3153170681       23.9348317319       32.1715111783  MEMB      75              0.0000000000
     10008        81  POPC      H8R            19.2394301605       22.8720570888       32.4854964361  MEMB      75              0.0000000000
     10009        81  POPC      H8S            18.8491080726       24.5490671111       32.9737414396  MEMB      75              0.0000000000
     10010        81  POPC      C29            20.7365818655       24.3694786726       31.9506995690  MEMB      75              0.0000000000
     10011        81  POPC      H91            20.8075720540       25.2925535180       31.3718458172  MEMB      75              0.0000000000
     10012        81  POPC      C210           21.8687035217       23.7410516943       32.2963105250  MEMB      75              0.0000000000
     10013        81  POPC      H101           22.8368710819       24.1838872905       32.0050117535  MEMB      75              0.0000000000
     10014        81  POPC      C211           21.9408831710       22.4217563708       33.0060104957  MEMB      75              0.0000000000
     10015        81  POPC      H11R           22.8562048681       21.8734226186       32.6900743727  MEMB      75              0.0000000000
     10016        81  POPC      H11S           21.0781491820       21.7684549305       32.7425359021  MEMB      75              0.0000000000
     10017        81  POPC      C212           21.9546335475       22.5992966569       34.5297475368  MEMB      75              0.0000000000
     10018        81  POPC      H12R           20.9999807865       23.0677422853       34.8635636176  MEMB      75              0.0000000000
     10019        81  POPC      H12S           22.7896889742       23.2682588014       34.8382538964  MEMB      75              0.0000000000
     10020        81  POPC      C213           22.1133475457       21.2274383405       35.1809979915  MEMB      75              0.0000000000
     10021        81  POPC      H13R           23.0902091729       20.7971218823       34.8660541723  MEMB      75              0.0000000000
     10022        81  POPC      H13S           21.3171178372       20.5652895072       34.7703443938  MEMB      75              0.0000000000
     10023        81  POPC      C214           22.0212242465       21.2048176384       36.7106777043  MEMB      75              0.0000000000
     10024        81  POPC      H14R           22.1030562866       20.1332797580       36.9943444088  MEMB      75              0.0000000000
     10025        81  POPC      H14S           21.0241329188       21.5733939211       37.0411478592  MEMB      75              0.0000000000
     10026        81  POPC      C215           23.1302750671       21.9823472322       37.4301235094  MEMB      75              0.0000000000
     10027        81  POPC      H15R           22.9877472992       23.0712523244       37.2489832956  MEMB      75              0.0000000000
     10028        81  POPC      H15S           24.1174313021       21.7030337531       37.0027668755  MEMB      75              0.0000000000
     10029        81  POPC      C216           23.1606113288       21.7325425176       38.9482833871  MEMB      75              0.0000000000
     10030        81  POPC      H16R           22.1896282508       22.0572942285       39.3787813989  MEMB      75              0.0000000000
     10031        81  POPC      H16S           23.9577556155       22.3711323009       39.3853254540  MEMB      75              0.0000000000
     10032        81  POPC      C217           23.4179051468       20.2735135934       39.3543334136  MEMB      75              0.0000000000
     10033        81  POPC      H17R           24.3741477171       19.9287307447       38.9025333960  MEMB      75              0.0000000000
     10034        81  POPC      H17S           22.6108754636       19.6339389285       38.9359593111  MEMB      75              0.0000000000
     10035        81  POPC      C218           23.4702416494       20.0440993221       40.8672639015  MEMB      75              0.0000000000
     10036        81  POPC      H18R           23.6567606712       18.9728714713       41.0813420186  MEMB      75              0.0000000000
     10037        81  POPC      H18S           22.5119365516       20.3387602873       41.3449804315  MEMB      75              0.0000000000
     10038        81  POPC      H18T           24.2909209218       20.6224322371       41.3331394662  MEMB      75              0.0000000000
     10039        81  POPC      C33            22.3349939473       27.5447646498       30.6134295549  MEMB      75              0.0000000000
     10040        81  POPC      H3X            22.1141971452       26.4650644600       30.6907819683  MEMB      75              0.0000000000
     10041        81  POPC      H3Y            21.3719113854       28.0762204014       30.4304323469  MEMB      75              0.0000000000
     10042        81  POPC      C34            22.9266517373       28.0558729550       31.9369461887  MEMB      75              0.0000000000
     10043        81  POPC      H4X            22.8476002377       29.1674531646       31.9436612936  MEMB      75              0.0000000000
     10044        81  POPC      H4Y            24.0099734160       27.8024779158       31.9783727265  MEMB      75              0.0000000000
     10045        81  POPC      C35            22.2451243184       27.4863936019       33.2051190928  MEMB      75              0.0000000000
     10046        81  POPC      H5X            22.6602432674       28.0396441828       34.0785217100  MEMB      75              0.0000000000
     10047        81  POPC      H5Y            22.5172172498       26.4164433088       33.3360853614  MEMB      75              0.0000000000
     10048        81  POPC      C36            20.7085247332       27.6185079151       33.2135103261  MEMB      75              0.0000000000
     10049        81  POPC      H6X            20.2089774769       26.7577659623       32.7386075285  MEMB      75              0.0000000000
     10050        81  POPC      H6Y            20.4763063000       28.4760066886       32.5580882556  MEMB      75              0.0000000000
     10051        81  POPC      C37            20.0858294783       27.8545214119       34.6037729736  MEMB      75              0.0000000000
     10052        81  POPC      H7X            19.1899554826       28.5064316456       34.5055064373  MEMB      75              0.0000000000
     10053        81  POPC      H7Y            20.8174373588       28.4135955466       35.2232647721  MEMB      75              0.0000000000
     10054        81  POPC      C38            19.6202747155       26.5646377466       35.3011149002  MEMB      75              0.0000000000
     10055        81  POPC      H8X            20.3055504203       25.7333976894       35.0239415455  MEMB      75              0.0000000000
     10056        81  POPC      H8Y            18.6160578199       26.2850823962       34.9112589654  MEMB      75              0.0000000000
     10057        81  POPC      C39            19.5528619855       26.6654142685       36.8370112950  MEMB      75              0.0000000000
     10058        81  POPC      H9X            19.2278042083       25.6782863689       37.2388661694  MEMB      75              0.0000000000
     10059        81  POPC      H9Y            18.7819983363       27.4126993828       37.1289094039  MEMB      75              0.0000000000
     10060        81  POPC      C310           20.8838649780       27.0421393790       37.5108329956  MEMB      75              0.0000000000
     10061        81  POPC      H10X           20.7521538591       26.9829236417       38.6149462804  MEMB      75              0.0000000000
     10062        81  POPC      H10Y           21.1336160860       28.0996657526       37.2747752610  MEMB      75              0.0000000000
     10063        81  POPC      C311           22.0600040152       26.1486793545       37.0840327506  MEMB      75              0.0000000000
     10064        81  POPC      H11X           22.1136502665       26.0926330313       35.9749681250  MEMB      75              0.0000000000
     10065        81  POPC      H11Y           21.8856570312       25.1166188870       37.4574903779  MEMB      75              0.0000000000
     10066        81  POPC      C312           23.4293048136       26.6596249765       37.5473533767  MEMB      75              0.0000000000
     10067        81  POPC      H12X           23.6664765880       27.5795277780       36.9727037001  MEMB      75              0.0000000000
     10068        81  POPC      H12Y           24.1932315807       25.8974803129       37.2816918846  MEMB      75              0.0000000000
     10069        81  POPC      C313           23.5129567187       27.0001959806       39.0377322218  MEMB      75              0.0000000000
     10070        81  POPC      H13X           22.7866366037       27.8098229740       39.2647213618  MEMB      75              0.0000000000
     10071        81  POPC      H13Y           24.5224006905       27.4060176602       39.2666882692  MEMB      75              0.0000000000
     10072        81  POPC      C314           23.2518294570       25.8045881258       39.9566905705  MEMB      75              0.0000000000
     10073        81  POPC      H14X           24.0986164076       25.0920855665       39.8417320248  MEMB      75              0.0000000000
     10074        81  POPC      H14Y           22.3260058683       25.2661093169       39.6604866938  MEMB      75              0.0000000000
     10075        81  POPC      C315           23.1217123204       26.2381359129       41.4184970714  MEMB      75              0.0000000000
     10076        81  POPC      H15X           23.9267561231       26.9702374687       41.6468158106  MEMB      75              0.0000000000
     10077        81  POPC      H15Y           23.2744929973       25.3522763897       42.0737708279  MEMB      75              0.0000000000
     10078        81  POPC      C316           21.7711484940       26.8670477990       41.7594030345  MEMB      75              0.0000000000
     10079        81  POPC      H16X           21.5998211466       27.7942271295       41.1725979303  MEMB      75              0.0000000000
     10080        81  POPC      H16Y           21.7524577892       27.1202412801       42.8388048582  MEMB      75              0.0000000000
     10081        81  POPC      H16Z           20.9354929235       26.1664201514       41.5554536772  MEMB      75              0.0000000000
     10082        82  POPC      N              24.1113034835       47.8869786201       23.4045333248  MEMB      76              0.0000000000
     10083        82  POPC      C12            22.7757787036       47.1991229258       23.1616931832  MEMB      76              0.0000000000
     10084        82  POPC      H12A           22.0045252821       47.9312751507       22.9802308945  MEMB      76              0.0000000000
     10085        82  POPC      H12B           22.4572888710       46.6815403638       24.0717546065  MEMB      76              0.0000000000
     10086        82  POPC      C13            25.1729700627       46.8984964908       23.7896703274  MEMB      76              0.0000000000
     10087        82  POPC      H13A           25.2033102055       46.0686666569       23.0718591816  MEMB      76              0.0000000000
     10088        82  POPC      H13B           26.1615500310       47.3027464434       23.8888259332  MEMB      76              0.0000000000
     10089        82  POPC      H13C           24.9138427023       46.3481166270       24.7010240580  MEMB      76              0.0000000000
     10090        82  POPC      C14            24.5817943411       48.5034268988       22.1320544235  MEMB      76              0.0000000000
     10091        82  POPC      H14A           24.6698564990       47.6948223663       21.3887148260  MEMB      76              0.0000000000
     10092        82  POPC      H14B           23.9065790267       49.2386865606       21.7227722348  MEMB      76              0.0000000000
     10093        82  POPC      H14C           25.5733910890       48.9081481210       22.2500491678  MEMB      76              0.0000000000
     10094        82  POPC      C15            23.9176760711       48.8059695872       24.5643388452  MEMB      76              0.0000000000
     10095        82  POPC      H15A           24.8086333602       49.3692797578       24.7843462973  MEMB      76              0.0000000000
     10096        82  POPC      H15B           23.6722904399       48.2002688559       25.4433569837  MEMB      76              0.0000000000
     10097        82  POPC      H15C           23.0648220951       49.4565822937       24.4304187552  MEMB      76              0.0000000000
     10098        82  POPC      C11            22.6453897864       46.1525261377       22.0360934446  MEMB      76              0.0000000000
     10099        82  POPC      H11A           23.0258311953       46.5605452486       21.0742382039  MEMB      76              0.0000000000
     10100        82  POPC      H11B           21.5577764656       45.9520409540       21.8829285958  MEMB      76              0.0000000000
     10101        82  POPC      P              23.1167145545       44.1674680839       23.7287300837  MEMB      76              0.0000000000
     10102        82  POPC      O13            24.2865386847       44.4004611150       24.5958729788  MEMB      76              0.0000000000
     10103        82  POPC      O14            22.7757809374       42.7655166573       23.4193625244  MEMB      76              0.0000000000
     10104        82  POPC      O12            23.3225078871       44.9475122709       22.3544026391  MEMB      76              0.0000000000
     10105        82  POPC      O11            21.8760056283       44.8835342993       24.3556945337  MEMB      76              0.0000000000
     10106        82  POPC      C1             20.5567327020       44.3987335033       24.1265291669  MEMB      76              0.0000000000
     10107        82  POPC      HA             20.5214469409       43.3013196347       23.9216077240  MEMB      76              0.0000000000
     10108        82  POPC      HB             20.1084927095       44.9076654960       23.2465957734  MEMB      76              0.0000000000
     10109        82  POPC      C2             19.6858501709       44.6306447919       25.3845183169  MEMB      76              0.0000000000
     10110        82  POPC      HS             18.6247507517       44.4625534902       25.1001065072  MEMB      76              0.0000000000
     10111        82  POPC      O21            19.7858275202       45.9418641398       25.9813804790  MEMB      76              0.0000000000
     10112        82  POPC      C21            20.0015394331       47.0463555046       25.2812039157  MEMB      76              0.0000000000
     10113        82  POPC      O22            19.9783211521       47.1809477752       24.0701160067  MEMB      76              0.0000000000
     10114        82  POPC      C22            20.4379966536       48.1508293977       26.2707040976  MEMB      76              0.0000000000
     10115        82  POPC      H2R            19.5766596769       48.8334417287       26.4028306228  MEMB      76              0.0000000000
     10116        82  POPC      H2S            21.2408223731       48.7146370562       25.7678471062  MEMB      76              0.0000000000
     10117        82  POPC      C3             20.0490213189       43.5451894893       26.4715676067  MEMB      76              0.0000000000
     10118        82  POPC      HX             19.6846128232       42.5645652079       26.0727694596  MEMB      76              0.0000000000
     10119        82  POPC      HY             19.4591983773       43.7951861225       27.3679138177  MEMB      76              0.0000000000
     10120        82  POPC      O31            21.4566807262       43.4810860266       26.8386393325  MEMB      76              0.0000000000
     10121        82  POPC      C31            21.7593305731       42.3937788956       27.5767013963  MEMB      76              0.0000000000
     10122        82  POPC      O32            20.9501516389       41.5763350356       27.9640937256  MEMB      76              0.0000000000
     10123        82  POPC      C32            23.2726744857       42.3263598959       27.8115487239  MEMB      76              0.0000000000
     10124        82  POPC      H2X            23.7024020160       43.3434833818       27.7163354842  MEMB      76              0.0000000000
     10125        82  POPC      H2Y            23.6907134337       41.7145825055       26.9835219401  MEMB      76              0.0000000000
     10126        82  POPC      C23            20.9298845546       47.6151119877       27.6441794716  MEMB      76              0.0000000000
     10127        82  POPC      H3R            21.6870429407       46.8156551287       27.4767027144  MEMB      76              0.0000000000
     10128        82  POPC      H3S            20.0756957039       47.1374080253       28.1722349350  MEMB      76              0.0000000000
     10129        82  POPC      C24            21.5414579791       48.6869462995       28.5686910015  MEMB      76              0.0000000000
     10130        82  POPC      H4R            20.8809314960       49.5826437047       28.5996034672  MEMB      76              0.0000000000
     10131        82  POPC      H4S            22.5217547115       49.0005351299       28.1512034924  MEMB      76              0.0000000000
     10132        82  POPC      C25            21.7344327230       48.1864302262       30.0140173717  MEMB      76              0.0000000000
     10133        82  POPC      H5R            22.2150001704       47.1840201844       29.9880585549  MEMB      76              0.0000000000
     10134        82  POPC      H5S            20.7329564732       48.0668730164       30.4860151079  MEMB      76              0.0000000000
     10135        82  POPC      C26            22.6033795429       49.1232815090       30.8744053937  MEMB      76              0.0000000000
     10136        82  POPC      H6R            22.1846592415       50.1541674782       30.8085527667  MEMB      76              0.0000000000
     10137        82  POPC      H6S            23.6307386260       49.1504655009       30.4501568102  MEMB      76              0.0000000000
     10138        82  POPC      C27            22.6991462899       48.7435155834       32.3674956567  MEMB      76              0.0000000000
     10139        82  POPC      H7R            21.7183180279       48.9400531866       32.8547249248  MEMB      76              0.0000000000
     10140        82  POPC      H7S            23.4358430563       49.4163107629       32.8612303344  MEMB      76              0.0000000000
     10141        82  POPC      C28            23.0609320801       47.2750713117       32.6713920320  MEMB      76              0.0000000000
     10142        82  POPC      H8R            22.2696842299       46.6151884933       32.2505592249  MEMB      76              0.0000000000
     10143        82  POPC      H8S            22.9982608029       47.1502739133       33.7744834745  MEMB      76              0.0000000000
     10144        82  POPC      C29            24.4195497806       46.8261216828       32.1933162313  MEMB      76              0.0000000000
     10145        82  POPC      H91            24.4150189360       46.2943353298       31.2297552259  MEMB      76              0.0000000000
     10146        82  POPC      C210           25.5901378919       46.9949212103       32.8419192188  MEMB      76              0.0000000000
     10147        82  POPC      H101           26.5049309154       46.5648482072       32.4062947337  MEMB      76              0.0000000000
     10148        82  POPC      C211           25.7674878916       47.6747963260       34.1787475734  MEMB      76              0.0000000000
     10149        82  POPC      H11R           24.9886739770       48.4624699934       34.3070186128  MEMB      76              0.0000000000
     10150        82  POPC      H11S           26.7487203017       48.1948684896       34.2381934661  MEMB      76              0.0000000000
     10151        82  POPC      C212           25.6190629779       46.7139038950       35.3734937330  MEMB      76              0.0000000000
     10152        82  POPC      H12R           24.7195749574       46.0752964462       35.2195076018  MEMB      76              0.0000000000
     10153        82  POPC      H12S           25.4271492093       47.3336734827       36.2801283791  MEMB      76              0.0000000000
     10154        82  POPC      C213           26.8337448507       45.8141354882       35.6708038224  MEMB      76              0.0000000000
     10155        82  POPC      H13R           27.6409450886       46.4460066172       36.1059311036  MEMB      76              0.0000000000
     10156        82  POPC      H13S           27.2217821553       45.3755350490       34.7254022272  MEMB      76              0.0000000000
     10157        82  POPC      C214           26.5012576081       44.6688541835       36.6544147532  MEMB      76              0.0000000000
     10158        82  POPC      H14R           27.4396556330       44.1727001260       36.9861595571  MEMB      76              0.0000000000
     10159        82  POPC      H14S           25.8892497576       43.9123945489       36.1093727028  MEMB      76              0.0000000000
     10160        82  POPC      C215           25.6845072716       45.1411177579       37.8704872467  MEMB      76              0.0000000000
     10161        82  POPC      H15R           24.7644976355       45.5911496084       37.4811878208  MEMB      76              0.0000000000
     10162        82  POPC      H15S           26.2052140703       45.9563793794       38.4021045151  MEMB      76              0.0000000000
     10163        82  POPC      C216           25.2374089329       44.0480053394       38.8488115889  MEMB      76              0.0000000000
     10164        82  POPC      H16R           26.1112337539       43.6909393887       39.4221114358  MEMB      76              0.0000000000
     10165        82  POPC      H16S           24.8177866956       43.1926519482       38.2739308000  MEMB      76              0.0000000000
     10166        82  POPC      C217           24.1818180590       44.5091855435       39.8589078302  MEMB      76              0.0000000000
     10167        82  POPC      H17R           23.2651703420       44.8157982105       39.3080990183  MEMB      76              0.0000000000
     10168        82  POPC      H17S           24.5690305719       45.4079739838       40.3852183277  MEMB      76              0.0000000000
     10169        82  POPC      C218           23.8273164169       43.4252818790       40.8825658113  MEMB      76              0.0000000000
     10170        82  POPC      H18R           23.3800506459       42.5424936064       40.3776866182  MEMB      76              0.0000000000
     10171        82  POPC      H18S           23.1007918102       43.8104137323       41.6289295414  MEMB      76              0.0000000000
     10172        82  POPC      H18T           24.7363775655       43.0876490269       41.4232904792  MEMB      76              0.0000000000
     10173        82  POPC      C33            23.6401989164       41.6967369556       29.1809916920  MEMB      76              0.0000000000
     10174        82  POPC      H3X            24.7192104474       41.4202888764       29.1542359254  MEMB      76              0.0000000000
     10175        82  POPC      H3Y            23.0552919234       40.7621239367       29.3446750127  MEMB      76              0.0000000000
     10176        82  POPC      C34            23.4150846108       42.6814848403       30.3390199651  MEMB      76              0.0000000000
     10177        82  POPC      H4X            22.3871411380       43.1008429344       30.2410764302  MEMB      76              0.0000000000
     10178        82  POPC      H4Y            24.1343802041       43.5258264379       30.2437824471  MEMB      76              0.0000000000
     10179        82  POPC      C35            23.5246842228       42.0598744520       31.7446791998  MEMB      76              0.0000000000
     10180        82  POPC      H5X            24.5537669578       41.6817536065       31.9295800703  MEMB      76              0.0000000000
     10181        82  POPC      H5Y            22.8329291289       41.1863735282       31.7851928303  MEMB      76              0.0000000000
     10182        82  POPC      C36            23.1175711609       43.0548122503       32.8484290338  MEMB      76              0.0000000000
     10183        82  POPC      H6X            22.2708202806       43.6703487642       32.4678294648  MEMB      76              0.0000000000
     10184        82  POPC      H6Y            23.9665304578       43.7447528329       33.0517801909  MEMB      76              0.0000000000
     10185        82  POPC      C37            22.6588807595       42.3836707560       34.1558332361  MEMB      76              0.0000000000
     10186        82  POPC      H7X            23.4228066198       41.6379009774       34.4708291683  MEMB      76              0.0000000000
     10187        82  POPC      H7Y            21.7120333125       41.8297322924       33.9588301936  MEMB      76              0.0000000000
     10188        82  POPC      C38            22.4205793266       43.3709315793       35.3180322321  MEMB      76              0.0000000000
     10189        82  POPC      H8X            23.3937397342       43.8292164247       35.6036730477  MEMB      76              0.0000000000
     10190        82  POPC      H8Y            22.0514320583       42.7953706487       36.1974640599  MEMB      76              0.0000000000
     10191        82  POPC      C39            21.4036537452       44.4846058279       34.9973268294  MEMB      76              0.0000000000
     10192        82  POPC      H9X            20.4922140658       44.0092889664       34.5734851066  MEMB      76              0.0000000000
     10193        82  POPC      H9Y            21.8291708168       45.1511295775       34.2166426948  MEMB      76              0.0000000000
     10194        82  POPC      C310           21.0050564984       45.3478893082       36.2119663538  MEMB      76              0.0000000000
     10195        82  POPC      H10X           20.7309495937       44.6835291807       37.0622952279  MEMB      76              0.0000000000
     10196        82  POPC      H10Y           20.1207312037       45.9710734105       35.9563749864  MEMB      76              0.0000000000
     10197        82  POPC      C311           22.1354128485       46.2753672340       36.6498836388  MEMB      76              0.0000000000
     10198        82  POPC      H11X           22.4419485324       46.9319181832       35.8089861448  MEMB      76              0.0000000000
     10199        82  POPC      H11Y           22.9787013771       45.6034625261       36.8817442844  MEMB      76              0.0000000000
     10200        82  POPC      C312           21.8536644648       47.1484581547       37.8775678709  MEMB      76              0.0000000000
     10201        82  POPC      H12X           21.5445598742       46.4995252308       38.7290109338  MEMB      76              0.0000000000
     10202        82  POPC      H12Y           21.0216346447       47.8532355586       37.6618925545  MEMB      76              0.0000000000
     10203        82  POPC      C313           23.1204217906       47.9282930294       38.2655301295  MEMB      76              0.0000000000
     10204        82  POPC      H13X           23.4121405153       48.6102690343       37.4369915523  MEMB      76              0.0000000000
     10205        82  POPC      H13Y           23.9347512915       47.1887505964       38.4042970775  MEMB      76              0.0000000000
     10206        82  POPC      C314           22.9950433591       48.6960417058       39.5807669789  MEMB      76              0.0000000000
     10207        82  POPC      H14X           22.7153317154       47.9655865516       40.3745577509  MEMB      76              0.0000000000
     10208        82  POPC      H14Y           22.1625986263       49.4236889231       39.4726143078  MEMB      76              0.0000000000
     10209        82  POPC      C315           24.2604556085       49.4582852408       40.0262665621  MEMB      76              0.0000000000
     10210        82  POPC      H15X           24.1984928603       49.5997208672       41.1314006574  MEMB      76              0.0000000000
     10211        82  POPC      H15Y           24.2378951280       50.4712142708       39.5658583959  MEMB      76              0.0000000000
     10212        82  POPC      C316           25.6058092806       48.8003776990       39.6946566690  MEMB      76              0.0000000000
     10213        82  POPC      H16X           25.6749269793       47.7916702212       40.1543584894  MEMB      76              0.0000000000
     10214        82  POPC      H16Y           26.4465571625       49.4179060603       40.0773067292  MEMB      76              0.0000000000
     10215        82  POPC      H16Z           25.7313504969       48.6933468210       38.5952812976  MEMB      76              0.0000000000
     10216        83  POPS      N              32.9391594070       18.7526377190       23.0638242056  MEMB      77              0.0000000000
     10217        83  POPS      HN1            32.6575259981       18.2169647199       22.2163424417  MEMB      77              0.0000000000
     10218        83  POPS      HN2            32.2290007646       19.4633107780       23.3375755420  MEMB      77              0.0000000000
     10219        83  POPS      HN3            33.8799590662       19.1954606874       22.9747512490  MEMB      77              0.0000000000
     10220        83  POPS      C12            33.0702276449       17.7831695292       24.1870657853  MEMB      77              0.0000000000
     10221        83  POPS      H12A           32.1522025555       17.2168616878       24.2674918375  MEMB      77              0.0000000000
     10222        83  POPS      C13            33.2850958880       18.4955928513       25.5398813639  MEMB      77              0.0000000000
     10223        83  POPS      O13A           33.3696937505       19.7541548562       25.5417864344  MEMB      77              0.0000000000
     10224        83  POPS      O13B           33.3567252929       17.7882503504       26.5742578299  MEMB      77              0.0000000000
     10225        83  POPS      C11            34.2779831555       16.8210228660       23.9215712078  MEMB      77              0.0000000000
     10226        83  POPS      H11A           34.1840056213       16.0310852723       24.6999485818  MEMB      77              0.0000000000
     10227        83  POPS      H11B           35.2209488962       17.3694069675       24.1590672336  MEMB      77              0.0000000000
     10228        83  POPS      P              33.2921855541       15.3465093507       21.9084766479  MEMB      77              0.0000000000
     10229        83  POPS      O13            33.9219844119       14.4076435097       20.9444954936  MEMB      77              0.0000000000
     10230        83  POPS      O14            32.2724670596       16.2777091730       21.3806012196  MEMB      77              0.0000000000
     10231        83  POPS      O12            34.3940902482       16.2688242516       22.5885889089  MEMB      77              0.0000000000
     10232        83  POPS      O11            32.7748347318       14.5673333884       23.1699798364  MEMB      77              0.0000000000
     10233        83  POPS      C1             33.3936848283       13.3117569832       23.5339673662  MEMB      77              0.0000000000
     10234        83  POPS      HA             34.1431086578       12.9436664920       22.8108165593  MEMB      77              0.0000000000
     10235        83  POPS      HB             32.5928007208       12.5357733225       23.5417562627  MEMB      77              0.0000000000
     10236        83  POPS      C2             34.0908729942       13.2951085911       24.9397596251  MEMB      77              0.0000000000
     10237        83  POPS      HS             34.2205192141       12.2308632842       25.2456849803  MEMB      77              0.0000000000
     10238        83  POPS      O21            33.2772299372       14.0446722998       25.8685842811  MEMB      77              0.0000000000
     10239        83  POPS      C21            32.1880898779       13.3286703101       26.1812870334  MEMB      77              0.0000000000
     10240        83  POPS      O22            32.0512489921       12.1603342684       25.8729226524  MEMB      77              0.0000000000
     10241        83  POPS      C22            31.2932881364       14.1411183938       27.1273169408  MEMB      77              0.0000000000
     10242        83  POPS      H2R            30.5083087153       13.4550248471       27.5026949276  MEMB      77              0.0000000000
     10243        83  POPS      H2S            30.7948254841       14.9227844385       26.5168343263  MEMB      77              0.0000000000
     10244        83  POPS      C3             35.5607402986       13.8528223738       24.9221020222  MEMB      77              0.0000000000
     10245        83  POPS      HX             35.6476640489       14.6289416272       24.1379137176  MEMB      77              0.0000000000
     10246        83  POPS      HY             36.1785720942       12.9768073647       24.6200493668  MEMB      77              0.0000000000
     10247        83  POPS      O31            36.0129480807       14.3725425172       26.1932506930  MEMB      77              0.0000000000
     10248        83  POPS      C31            37.3253584485       14.6248990811       26.2888207465  MEMB      77              0.0000000000
     10249        83  POPS      O32            38.1424880067       14.4649137175       25.3956602568  MEMB      77              0.0000000000
     10250        83  POPS      C32            37.6478004524       14.9561181263       27.7341108987  MEMB      77              0.0000000000
     10251        83  POPS      H2X            38.1501596328       14.0570652511       28.1506001415  MEMB      77              0.0000000000
     10252        83  POPS      H2Y            36.6895262777       15.1062975864       28.2729062969  MEMB      77              0.0000000000
     10253        83  POPS      C23            32.0381331136       14.8001912478       28.3148432741  MEMB      77              0.0000000000
     10254        83  POPS      H3R            32.7592060485       15.5488221181       27.9041891712  MEMB      77              0.0000000000
     10255        83  POPS      H3S            32.6188387345       14.0477968352       28.8882322424  MEMB      77              0.0000000000
     10256        83  POPS      C24            31.0647591997       15.5375725680       29.2531009532  MEMB      77              0.0000000000
     10257        83  POPS      H4R            30.5525196484       14.8151453799       29.9228146347  MEMB      77              0.0000000000
     10258        83  POPS      H4S            30.2844589902       16.0155150791       28.6139431634  MEMB      77              0.0000000000
     10259        83  POPS      C25            31.7114803774       16.6682364731       30.0669372247  MEMB      77              0.0000000000
     10260        83  POPS      H5R            30.9291775429       17.1877526369       30.6650200154  MEMB      77              0.0000000000
     10261        83  POPS      H5S            32.1110366059       17.4157463083       29.3370358952  MEMB      77              0.0000000000
     10262        83  POPS      C26            32.8646264875       16.2464286464       30.9887895005  MEMB      77              0.0000000000
     10263        83  POPS      H6R            33.4177292715       17.1745254750       31.2636476326  MEMB      77              0.0000000000
     10264        83  POPS      H6S            33.5769397965       15.5916122446       30.4431462346  MEMB      77              0.0000000000
     10265        83  POPS      C27            32.4056207647       15.5817487433       32.2938282569  MEMB      77              0.0000000000
     10266        83  POPS      H7R            32.0784197440       14.5391047004       32.0910516690  MEMB      77              0.0000000000
     10267        83  POPS      H7S            31.5202385155       16.1414626051       32.6760671675  MEMB      77              0.0000000000
     10268        83  POPS      C28            33.4776099690       15.6323509518       33.4007834077  MEMB      77              0.0000000000
     10269        83  POPS      H8R            33.0119860313       15.3563924943       34.3691842745  MEMB      77              0.0000000000
     10270        83  POPS      H8S            33.7918909964       16.6928442211       33.5120027979  MEMB      77              0.0000000000
     10271        83  POPS      C29            34.6789310844       14.7766535336       33.0982597114  MEMB      77              0.0000000000
     10272        83  POPS      H91            34.9925894404       14.7698735771       32.0418103920  MEMB      77              0.0000000000
     10273        83  POPS      C210           35.3825077429       14.0492943614       33.9821335252  MEMB      77              0.0000000000
     10274        83  POPS      H101           36.2336492746       13.4692610283       33.6091348470  MEMB      77              0.0000000000
     10275        83  POPS      C211           35.1436542007       13.9118192727       35.4635160022  MEMB      77              0.0000000000
     10276        83  POPS      H11R           35.5781006979       12.9499039009       35.7978080999  MEMB      77              0.0000000000
     10277        83  POPS      H11S           34.0553549782       13.8305638188       35.6686946095  MEMB      77              0.0000000000
     10278        83  POPS      C212           35.6475603554       15.0681466768       36.3577639207  MEMB      77              0.0000000000
     10279        83  POPS      H12R           35.2591583638       14.8930325153       37.3852075779  MEMB      77              0.0000000000
     10280        83  POPS      H12S           35.1811427740       16.0071154174       35.9982982848  MEMB      77              0.0000000000
     10281        83  POPS      C213           37.1714940128       15.2547407940       36.4461442289  MEMB      77              0.0000000000
     10282        83  POPS      H13R           37.5754125817       15.4285892031       35.4225774227  MEMB      77              0.0000000000
     10283        83  POPS      H13S           37.6372656016       14.3234734282       36.8347582034  MEMB      77              0.0000000000
     10284        83  POPS      C214           37.6479766894       16.4269917796       37.3386562273  MEMB      77              0.0000000000
     10285        83  POPS      H14R           37.4795461592       17.3907007045       36.8119934959  MEMB      77              0.0000000000
     10286        83  POPS      H14S           38.7418760111       16.2834594212       37.4592883103  MEMB      77              0.0000000000
     10287        83  POPS      C215           37.0542219382       16.5262272339       38.7586973772  MEMB      77              0.0000000000
     10288        83  POPS      H15R           37.8074066158       17.0022906182       39.4305896945  MEMB      77              0.0000000000
     10289        83  POPS      H15S           36.8894533941       15.5051570611       39.1357214345  MEMB      77              0.0000000000
     10290        83  POPS      C216           35.7792172297       17.3858562392       38.7951724149  MEMB      77              0.0000000000
     10291        83  POPS      H16R           35.1752541282       17.1599266603       37.8952865294  MEMB      77              0.0000000000
     10292        83  POPS      H16S           36.0950197417       18.4522172484       38.7233675529  MEMB      77              0.0000000000
     10293        83  POPS      C217           34.8296621621       17.2420115783       39.9983581023  MEMB      77              0.0000000000
     10294        83  POPS      H17R           34.0071185061       17.9697111010       39.8260575913  MEMB      77              0.0000000000
     10295        83  POPS      H17S           35.3409709320       17.5769990520       40.9173553187  MEMB      77              0.0000000000
     10296        83  POPS      C218           34.1861380669       15.8696434515       40.2371356989  MEMB      77              0.0000000000
     10297        83  POPS      H18R           33.6548239867       15.5125866944       39.3301923456  MEMB      77              0.0000000000
     10298        83  POPS      H18S           33.4542056965       15.9350917280       41.0707120694  MEMB      77              0.0000000000
     10299        83  POPS      H18T           34.9344852296       15.1149394677       40.5289908366  MEMB      77              0.0000000000
     10300        83  POPS      C33            38.5621523368       16.1867746613       27.9068859483  MEMB      77              0.0000000000
     10301        83  POPS      H3X            38.1095080905       17.0921243091       27.4359093571  MEMB      77              0.0000000000
     10302        83  POPS      H3Y            39.5413364442       15.9961821257       27.4108660277  MEMB      77              0.0000000000
     10303        83  POPS      C34            38.8129629510       16.4730909386       29.3942938288  MEMB      77              0.0000000000
     10304        83  POPS      H4X            39.6390695888       17.2127714634       29.4890675197  MEMB      77              0.0000000000
     10305        83  POPS      H4Y            39.1678337188       15.5359487558       29.8612793019  MEMB      77              0.0000000000
     10306        83  POPS      C35            37.5640396878       17.0121495478       30.1073268180  MEMB      77              0.0000000000
     10307        83  POPS      H5X            36.6403363619       16.5255733178       29.7284237725  MEMB      77              0.0000000000
     10308        83  POPS      H5Y            37.4762187339       18.0895149740       29.8370271760  MEMB      77              0.0000000000
     10309        83  POPS      C36            37.5486854493       16.8576710684       31.6340318278  MEMB      77              0.0000000000
     10310        83  POPS      H6X            38.5679132505       17.0145504285       32.0384006913  MEMB      77              0.0000000000
     10311        83  POPS      H6Y            37.2554089958       15.8209657059       31.9059337516  MEMB      77              0.0000000000
     10312        83  POPS      C37            36.5511518481       17.8605076591       32.2373478247  MEMB      77              0.0000000000
     10313        83  POPS      H7X            35.5515794034       17.6680819883       31.7878725834  MEMB      77              0.0000000000
     10314        83  POPS      H7Y            36.8470553007       18.8874717253       31.9377661774  MEMB      77              0.0000000000
     10315        83  POPS      C38            36.4154409820       17.8622395167       33.7636868266  MEMB      77              0.0000000000
     10316        83  POPS      H8X            37.4107229201       17.9917664417       34.2356387081  MEMB      77              0.0000000000
     10317        83  POPS      H8Y            36.0217054757       16.8839669791       34.1025440704  MEMB      77              0.0000000000
     10318        83  POPS      C39            35.4657798810       18.9862773008       34.2189236480  MEMB      77              0.0000000000
     10319        83  POPS      H9X            34.4904605690       18.8562110170       33.7004199160  MEMB      77              0.0000000000
     10320        83  POPS      H9Y            35.8921065547       19.9624320966       33.8984318075  MEMB      77              0.0000000000
     10321        83  POPS      C310           35.2318559057       19.0118288756       35.7342264230  MEMB      77              0.0000000000
     10322        83  POPS      H10X           36.2154307594       19.1640153624       36.2325785000  MEMB      77              0.0000000000
     10323        83  POPS      H10Y           34.8414817948       18.0235602549       36.0423369683  MEMB      77              0.0000000000
     10324        83  POPS      C311           34.2539057146       20.0957005525       36.2191319338  MEMB      77              0.0000000000
     10325        83  POPS      H11X           34.5042646234       21.0498670384       35.7041095906  MEMB      77              0.0000000000
     10326        83  POPS      H11Y           34.4093928055       20.2571020992       37.3092080139  MEMB      77              0.0000000000
     10327        83  POPS      C312           32.7689181921       19.7610510674       35.9861382293  MEMB      77              0.0000000000
     10328        83  POPS      H12X           32.6385878364       19.4383455633       34.9300272841  MEMB      77              0.0000000000
     10329        83  POPS      H12Y           32.1666494571       20.6871379604       36.1283127568  MEMB      77              0.0000000000
     10330        83  POPS      C313           32.1901873071       18.6825677463       36.9242930638  MEMB      77              0.0000000000
     10331        83  POPS      H13X           32.8671530143       17.8020763061       36.9666107053  MEMB      77              0.0000000000
     10332        83  POPS      H13Y           31.2263015528       18.3367182703       36.4878592625  MEMB      77              0.0000000000
     10333        83  POPS      C314           31.9180884215       19.2081573233       38.3445352794  MEMB      77              0.0000000000
     10334        83  POPS      H14X           31.2409566820       20.0874228199       38.2700518399  MEMB      77              0.0000000000
     10335        83  POPS      H14Y           32.8713862962       19.5647264695       38.7909651638  MEMB      77              0.0000000000
     10336        83  POPS      C315           31.2687393006       18.1862230999       39.2916416066  MEMB      77              0.0000000000
     10337        83  POPS      H15X           31.1445126322       18.6677452955       40.2901361057  MEMB      77              0.0000000000
     10338        83  POPS      H15Y           31.9513765372       17.3195277201       39.4345990653  MEMB      77              0.0000000000
     10339        83  POPS      C316           29.9161851772       17.6597308536       38.8050270519  MEMB      77              0.0000000000
     10340        83  POPS      H16X           29.2921563946       18.4656114741       38.3774448860  MEMB      77              0.0000000000
     10341        83  POPS      H16Y           29.3621673776       17.1802499016       39.6400275776  MEMB      77              0.0000000000
     10342        83  POPS      H16Z           30.0595847426       16.9172657319       37.9962188827  MEMB      77              0.0000000000
     10343        84  POPC      N              47.3706858154       41.8159287674       24.0188488425  MEMB      78              0.0000000000
     10344        84  POPC      C12            46.1183503584       41.7512423915       24.8639078655  MEMB      78              0.0000000000
     10345        84  POPC      H12A           46.0242805936       42.6713924343       25.4350111556  MEMB      78              0.0000000000
     10346        84  POPC      H12B           46.2328813147       40.9801898944       25.6126481686  MEMB      78              0.0000000000
     10347        84  POPC      C13            47.6099527681       40.5095646015       23.3349041596  MEMB      78              0.0000000000
     10348        84  POPC      H13A           46.8708293102       40.3699148681       22.5435582845  MEMB      78              0.0000000000
     10349        84  POPC      H13B           48.5804194517       40.5107595885       22.8361557073  MEMB      78              0.0000000000
     10350        84  POPC      H13C           47.5890235112       39.6725748352       24.0157329738  MEMB      78              0.0000000000
     10351        84  POPC      C14            47.2421014923       42.8692634482       22.9606238632  MEMB      78              0.0000000000
     10352        84  POPC      H14A           48.0697633661       42.8160702724       22.2725019734  MEMB      78              0.0000000000
     10353        84  POPC      H14B           46.3088940713       42.6824614773       22.4134539131  MEMB      78              0.0000000000
     10354        84  POPC      H14C           47.1226934751       43.8457711946       23.4029295263  MEMB      78              0.0000000000
     10355        84  POPC      C15            48.5596345348       42.1122612468       24.8689888391  MEMB      78              0.0000000000
     10356        84  POPC      H15A           48.6406988120       41.3621118326       25.6481987718  MEMB      78              0.0000000000
     10357        84  POPC      H15B           48.5103061116       43.1061490105       25.3011120606  MEMB      78              0.0000000000
     10358        84  POPC      H15C           49.4656840565       42.0121517765       24.2684429088  MEMB      78              0.0000000000
     10359        84  POPC      C11            44.7750507949       41.5161146297       24.1480198258  MEMB      78              0.0000000000
     10360        84  POPC      H11A           43.9806194650       41.3994071011       24.9267756195  MEMB      78              0.0000000000
     10361        84  POPC      H11B           44.8022423021       40.5811794276       23.5438034923  MEMB      78              0.0000000000
     10362        84  POPC      P              43.0594106399       42.9826082901       22.8307795605  MEMB      78              0.0000000000
     10363        84  POPC      O13            42.3968487449       41.7018120883       22.5278027734  MEMB      78              0.0000000000
     10364        84  POPC      O14            43.2547224262       43.9052442433       21.6854766022  MEMB      78              0.0000000000
     10365        84  POPC      O12            44.5218728974       42.6280488253       23.3125100683  MEMB      78              0.0000000000
     10366        84  POPC      O11            42.4508795470       43.7368309104       24.0682697183  MEMB      78              0.0000000000
     10367        84  POPC      C1             43.0110526707       44.9600033809       24.5461409529  MEMB      78              0.0000000000
     10368        84  POPC      HA             42.1944936424       45.6060018458       24.9281186588  MEMB      78              0.0000000000
     10369        84  POPC      HB             43.5272288823       45.5492353434       23.7518956731  MEMB      78              0.0000000000
     10370        84  POPC      C2             43.9491038188       44.6839034465       25.7289042162  MEMB      78              0.0000000000
     10371        84  POPC      HS             44.7470884242       44.0209130165       25.3232801845  MEMB      78              0.0000000000
     10372        84  POPC      O21            43.1384613266       44.0663878391       26.7691166137  MEMB      78              0.0000000000
     10373        84  POPC      C21            43.7533937409       43.0619262333       27.3321861337  MEMB      78              0.0000000000
     10374        84  POPC      O22            44.9558350883       42.8544825125       27.2875795205  MEMB      78              0.0000000000
     10375        84  POPC      C22            42.7877875000       42.1192383798       28.0414092105  MEMB      78              0.0000000000
     10376        84  POPC      H2R            42.7632652790       41.1802769276       27.4461094965  MEMB      78              0.0000000000
     10377        84  POPC      H2S            41.7689898666       42.5237817669       28.0379800529  MEMB      78              0.0000000000
     10378        84  POPC      C3             44.6358864693       45.9941856394       26.2046280915  MEMB      78              0.0000000000
     10379        84  POPC      HX             43.8502841881       46.6740848634       26.5984831496  MEMB      78              0.0000000000
     10380        84  POPC      HY             45.0821398083       46.5106892453       25.3214903771  MEMB      78              0.0000000000
     10381        84  POPC      O31            45.6190406216       45.7718999490       27.2296310030  MEMB      78              0.0000000000
     10382        84  POPC      C31            46.8290878089       45.4055288849       26.8329119856  MEMB      78              0.0000000000
     10383        84  POPC      O32            47.1727781226       45.1271739337       25.6949603329  MEMB      78              0.0000000000
     10384        84  POPC      C32            47.8175551643       45.5872080079       28.0082728347  MEMB      78              0.0000000000
     10385        84  POPC      H2X            48.0647372374       46.6701461751       28.0410745624  MEMB      78              0.0000000000
     10386        84  POPC      H2Y            48.7412551313       45.0244677277       27.7693227658  MEMB      78              0.0000000000
     10387        84  POPC      C23            43.3285708218       41.8183599313       29.4570212992  MEMB      78              0.0000000000
     10388        84  POPC      H3R            44.3399714645       41.4020706474       29.2825587617  MEMB      78              0.0000000000
     10389        84  POPC      H3S            42.7369709384       41.0169205051       29.9433226758  MEMB      78              0.0000000000
     10390        84  POPC      C24            43.4208929322       43.0386190974       30.4038909237  MEMB      78              0.0000000000
     10391        84  POPC      H4R            42.4001294625       43.3645686726       30.6974602916  MEMB      78              0.0000000000
     10392        84  POPC      H4S            43.8865041171       43.8904521403       29.8564466460  MEMB      78              0.0000000000
     10393        84  POPC      C25            44.2765918192       42.7977191208       31.6717312196  MEMB      78              0.0000000000
     10394        84  POPC      H5R            43.6723703175       42.2633264370       32.4394109152  MEMB      78              0.0000000000
     10395        84  POPC      H5S            44.5694475763       43.7827074909       32.0958358796  MEMB      78              0.0000000000
     10396        84  POPC      C26            45.5236271281       41.9548641839       31.3559787140  MEMB      78              0.0000000000
     10397        84  POPC      H6R            45.9443390043       42.2738156764       30.3736886379  MEMB      78              0.0000000000
     10398        84  POPC      H6S            45.1405379767       40.9210692818       31.2609036719  MEMB      78              0.0000000000
     10399        84  POPC      C27            46.6774110510       41.9313739623       32.3600240588  MEMB      78              0.0000000000
     10400        84  POPC      H7R            46.4077787797       42.4439856044       33.2953763618  MEMB      78              0.0000000000
     10401        84  POPC      H7S            47.4953945013       42.5285092162       31.8998610900  MEMB      78              0.0000000000
     10402        84  POPC      C28            47.3355911392       40.5372690863       32.5242685831  MEMB      78              0.0000000000
     10403        84  POPC      H8R            48.4250739602       40.7356202405       32.3812465550  MEMB      78              0.0000000000
     10404        84  POPC      H8S            47.0414950733       39.9353084521       31.6428643227  MEMB      78              0.0000000000
     10405        84  POPC      C29            47.2593787964       39.6826360291       33.7647279441  MEMB      78              0.0000000000
     10406        84  POPC      H91            47.6595169565       38.6661833572       33.6127469736  MEMB      78              0.0000000000
     10407        84  POPC      C210           46.7608230564       39.9452486793       34.9742888319  MEMB      78              0.0000000000
     10408        84  POPC      H101           46.8401519880       39.1569899408       35.7348479711  MEMB      78              0.0000000000
     10409        84  POPC      C211           46.1342884820       41.2144391939       35.4596610951  MEMB      78              0.0000000000
     10410        84  POPC      H11R           45.3324338029       41.4822278155       34.7286906250  MEMB      78              0.0000000000
     10411        84  POPC      H11S           46.8580019747       42.0510730111       35.4718967427  MEMB      78              0.0000000000
     10412        84  POPC      C212           45.4107988906       41.0378890842       36.8061667902  MEMB      78              0.0000000000
     10413        84  POPC      H12R           45.0874093848       39.9921786534       36.9610814115  MEMB      78              0.0000000000
     10414        84  POPC      H12S           44.4633249071       41.6133825565       36.7340591688  MEMB      78              0.0000000000
     10415        84  POPC      C213           46.1462054625       41.4309483403       38.0961396869  MEMB      78              0.0000000000
     10416        84  POPC      H13R           45.8290471581       40.7175112399       38.8877666549  MEMB      78              0.0000000000
     10417        84  POPC      H13S           45.7991886707       42.4240844366       38.4261445459  MEMB      78              0.0000000000
     10418        84  POPC      C214           47.6714863193       41.5046618895       38.0787756102  MEMB      78              0.0000000000
     10419        84  POPC      H14R           48.0132710380       42.1134721142       37.2122950580  MEMB      78              0.0000000000
     10420        84  POPC      H14S           48.1051543621       40.4864826557       37.9768715199  MEMB      78              0.0000000000
     10421        84  POPC      C215           48.1744009073       42.1957353485       39.3567061469  MEMB      78              0.0000000000
     10422        84  POPC      H15R           47.7113837244       43.2067227135       39.4227890804  MEMB      78              0.0000000000
     10423        84  POPC      H15S           49.2682492126       42.3554591888       39.2950655136  MEMB      78              0.0000000000
     10424        84  POPC      C216           47.8440998365       41.4160212635       40.6334456265  MEMB      78              0.0000000000
     10425        84  POPC      H16R           48.2643494699       40.3864474784       40.5539412230  MEMB      78              0.0000000000
     10426        84  POPC      H16S           46.7404974733       41.3285692891       40.7448610079  MEMB      78              0.0000000000
     10427        84  POPC      C217           48.4005297021       42.0918855453       41.8847457190  MEMB      78              0.0000000000
     10428        84  POPC      H17R           48.0340096416       41.5249939952       42.7702074403  MEMB      78              0.0000000000
     10429        84  POPC      H17S           48.0167493231       43.1352276832       41.9606052022  MEMB      78              0.0000000000
     10430        84  POPC      C218           49.9174953079       42.0976999181       41.9173022405  MEMB      78              0.0000000000
     10431        84  POPC      H18R           50.2803373365       41.0655396465       41.7254827331  MEMB      78              0.0000000000
     10432        84  POPC      H18S           50.2749403307       42.4332394298       42.9116644681  MEMB      78              0.0000000000
     10433        84  POPC      H18T           50.3536796051       42.7667296090       41.1451215609  MEMB      78              0.0000000000
     10434        84  POPC      C33            47.2821034925       45.1668269191       29.4035757571  MEMB      78              0.0000000000
     10435        84  POPC      H3X            47.1997462895       44.0590100928       29.4498884831  MEMB      78              0.0000000000
     10436        84  POPC      H3Y            46.2563866308       45.5798187277       29.5432366427  MEMB      78              0.0000000000
     10437        84  POPC      C34            48.1437465004       45.6629471781       30.5882832257  MEMB      78              0.0000000000
     10438        84  POPC      H4X            48.3869051935       46.7354305083       30.4552160475  MEMB      78              0.0000000000
     10439        84  POPC      H4Y            49.1098825216       45.1117396630       30.6029750372  MEMB      78              0.0000000000
     10440        84  POPC      C35            47.4194007430       45.4613841244       31.9346280258  MEMB      78              0.0000000000
     10441        84  POPC      H5X            47.5039487571       44.3937637166       32.1730209118  MEMB      78              0.0000000000
     10442        84  POPC      H5Y            46.3377423694       45.6590840035       31.8227704600  MEMB      78              0.0000000000
     10443        84  POPC      C36            47.9683572110       46.2219170018       33.1539648753  MEMB      78              0.0000000000
     10444        84  POPC      H6X            47.5165267537       47.2329619212       33.2238254471  MEMB      78              0.0000000000
     10445        84  POPC      H6Y            49.0603877628       46.3641638990       33.0094716041  MEMB      78              0.0000000000
     10446        84  POPC      C37            47.7203649056       45.4710686033       34.4831985975  MEMB      78              0.0000000000
     10447        84  POPC      H7X            48.5183543856       45.7482390762       35.2079230546  MEMB      78              0.0000000000
     10448        84  POPC      H7Y            47.7986471916       44.3750653901       34.3144864653  MEMB      78              0.0000000000
     10449        84  POPC      C38            46.3581138127       45.8090909080       35.1156939358  MEMB      78              0.0000000000
     10450        84  POPC      H8X            45.5704363515       45.7312613985       34.3326410810  MEMB      78              0.0000000000
     10451        84  POPC      H8Y            46.4099058289       46.8640678852       35.4602286371  MEMB      78              0.0000000000
     10452        84  POPC      C39            45.9488859337       44.9091694399       36.2945542481  MEMB      78              0.0000000000
     10453        84  POPC      H9X            46.7515993343       44.9105428253       37.0650590410  MEMB      78              0.0000000000
     10454        84  POPC      H9Y            45.8416086895       43.8708727727       35.9171847913  MEMB      78              0.0000000000
     10455        84  POPC      C310           44.6160534667       45.3070484394       36.9596067483  MEMB      78              0.0000000000
     10456        84  POPC      H10X           43.8140646997       45.3651317394       36.1902315453  MEMB      78              0.0000000000
     10457        84  POPC      H10Y           44.7423307234       46.3062325719       37.4275593724  MEMB      78              0.0000000000
     10458        84  POPC      C311           44.2052097309       44.3343456849       38.0738215089  MEMB      78              0.0000000000
     10459        84  POPC      H11X           45.0667350705       44.2776503213       38.7785090045  MEMB      78              0.0000000000
     10460        84  POPC      H11Y           44.0194085316       43.3316178781       37.6453239711  MEMB      78              0.0000000000
     10461        84  POPC      C312           42.9651083961       44.7300841248       38.8764662793  MEMB      78              0.0000000000
     10462        84  POPC      H12X           42.0348950472       44.5189532731       38.3097354187  MEMB      78              0.0000000000
     10463        84  POPC      H12Y           43.0202969209       45.8304578744       39.0518199322  MEMB      78              0.0000000000
     10464        84  POPC      C313           42.8996252129       44.0731665768       40.2640746446  MEMB      78              0.0000000000
     10465        84  POPC      H13X           42.1295874054       44.6247021859       40.8517244665  MEMB      78              0.0000000000
     10466        84  POPC      H13Y           43.8732626960       44.2178749024       40.7680588601  MEMB      78              0.0000000000
     10467        84  POPC      C314           42.6050587393       42.5699284984       40.3868961552  MEMB      78              0.0000000000
     10468        84  POPC      H14X           43.4500353822       41.9720604979       39.9730956020  MEMB      78              0.0000000000
     10469        84  POPC      H14Y           41.6972519416       42.2902594520       39.8173081529  MEMB      78              0.0000000000
     10470        84  POPC      C315           42.4429246435       42.2468025461       41.8856569654  MEMB      78              0.0000000000
     10471        84  POPC      H15X           42.3754025224       43.2023029808       42.4567556093  MEMB      78              0.0000000000
     10472        84  POPC      H15Y           43.3816673035       41.7580960070       42.2086764785  MEMB      78              0.0000000000
     10473        84  POPC      C316           41.2338634427       41.4103252486       42.3015795305  MEMB      78              0.0000000000
     10474        84  POPC      H16X           41.2458571069       40.4296480348       41.7958590109  MEMB      78              0.0000000000
     10475        84  POPC      H16Y           40.2855328683       41.9296395681       42.0470401547  MEMB      78              0.0000000000
     10476        84  POPC      H16Z           41.2520610996       41.2373893979       43.4019200594  MEMB      78              0.0000000000
     10477        85  POPC      N              47.2927726253       26.8837480846       21.9566194801  MEMB      79              0.0000000000
     10478        85  POPC      C12            47.7567342731       27.0092071055       23.4026517773  MEMB      79              0.0000000000
     10479        85  POPC      H12A           46.9637164483       26.6307818167       24.0427055095  MEMB      79              0.0000000000
     10480        85  POPC      H12B           47.9186141062       28.0506240838       23.6456446859  MEMB      79              0.0000000000
     10481        85  POPC      C13            46.6640705153       28.1274135940       21.4354665221  MEMB      79              0.0000000000
     10482        85  POPC      H13A           47.4088794895       28.9110104225       21.3271293117  MEMB      79              0.0000000000
     10483        85  POPC      H13B           46.2671815777       27.9256508009       20.4445922782  MEMB      79              0.0000000000
     10484        85  POPC      H13C           45.8548442304       28.4751774584       22.0537519813  MEMB      79              0.0000000000
     10485        85  POPC      C14            48.4697404897       26.5693027798       21.0743693723  MEMB      79              0.0000000000
     10486        85  POPC      H14A           48.1429909794       26.2837550253       20.0795528486  MEMB      79              0.0000000000
     10487        85  POPC      H14B           49.1436873807       27.4087814191       21.0066380868  MEMB      79              0.0000000000
     10488        85  POPC      H14C           49.0078071948       25.7336869995       21.5171930184  MEMB      79              0.0000000000
     10489        85  POPC      C15            46.3188392717       25.7430661250       21.8269740037  MEMB      79              0.0000000000
     10490        85  POPC      H15A           45.3618313017       25.9369725477       22.2962341582  MEMB      79              0.0000000000
     10491        85  POPC      H15B           46.7147607478       24.8536582277       22.3310743462  MEMB      79              0.0000000000
     10492        85  POPC      H15C           46.1487458560       25.4769337748       20.7901462208  MEMB      79              0.0000000000
     10493        85  POPC      C11            49.0596659089       26.2713126325       23.8218873780  MEMB      79              0.0000000000
     10494        85  POPC      H11A           49.1583335460       26.3392209643       24.9296974446  MEMB      79              0.0000000000
     10495        85  POPC      H11B           49.9295779913       26.8377713122       23.4109505562  MEMB      79              0.0000000000
     10496        85  POPC      P              48.4319722901       23.7225520138       24.1642104892  MEMB      79              0.0000000000
     10497        85  POPC      O13            49.1429131905       22.5321649175       23.6433993907  MEMB      79              0.0000000000
     10498        85  POPC      O14            46.9751671022       23.7899739708       23.9114934797  MEMB      79              0.0000000000
     10499        85  POPC      O12            49.1107635284       24.9211397804       23.3609714097  MEMB      79              0.0000000000
     10500        85  POPC      O11            48.8276701177       24.0323304602       25.6875702219  MEMB      79              0.0000000000
     10501        85  POPC      C1             50.1054464217       23.6449915987       26.2255935445  MEMB      79              0.0000000000
     10502        85  POPC      HA             50.9297182488       23.9279425360       25.5264089257  MEMB      79              0.0000000000
     10503        85  POPC      HB             50.1476657952       22.5358615492       26.3525859542  MEMB      79              0.0000000000
     10504        85  POPC      C2             50.4830735716       24.2707290186       27.6324814428  MEMB      79              0.0000000000
     10505        85  POPC      HS             51.5300086312       23.9538165463       27.8221784934  MEMB      79              0.0000000000
     10506        85  POPC      O21            49.6210870803       23.7681195387       28.6854613284  MEMB      79              0.0000000000
     10507        85  POPC      C21            50.0681880150       24.0190574120       29.9259135239  MEMB      79              0.0000000000
     10508        85  POPC      O22            51.1839186515       24.4308054406       30.1887805162  MEMB      79              0.0000000000
     10509        85  POPC      C22            48.9674366693       23.7146172113       30.9388152457  MEMB      79              0.0000000000
     10510        85  POPC      H2R            48.9000213697       22.6152565072       31.0316478092  MEMB      79              0.0000000000
     10511        85  POPC      H2S            48.0276064236       24.1046881352       30.5058220559  MEMB      79              0.0000000000
     10512        85  POPC      C3             50.4569882352       25.8453713393       27.6444782653  MEMB      79              0.0000000000
     10513        85  POPC      HX             50.4617256084       26.2151929435       26.5968952128  MEMB      79              0.0000000000
     10514        85  POPC      HY             51.4163695703       26.1611539743       28.1237223085  MEMB      79              0.0000000000
     10515        85  POPC      O31            49.3511424453       26.4028707923       28.3930951038  MEMB      79              0.0000000000
     10516        85  POPC      C31            49.4274411770       27.7240524667       28.5592426057  MEMB      79              0.0000000000
     10517        85  POPC      O32            50.2794219457       28.4436754314       28.0758884981  MEMB      79              0.0000000000
     10518        85  POPC      C32            48.2679659249       28.2149490128       29.4355494611  MEMB      79              0.0000000000
     10519        85  POPC      H2X            47.6792756868       27.3424556501       29.7873788546  MEMB      79              0.0000000000
     10520        85  POPC      H2Y            47.6209814693       28.8431280946       28.7911314629  MEMB      79              0.0000000000
     10521        85  POPC      C23            49.2181855178       24.3258004977       32.3377490867  MEMB      79              0.0000000000
     10522        85  POPC      H3R            49.4910137138       25.3936245854       32.2525951849  MEMB      79              0.0000000000
     10523        85  POPC      H3S            50.1019180609       23.8088234582       32.7779215215  MEMB      79              0.0000000000
     10524        85  POPC      C24            48.0311493504       24.1930032913       33.3148527254  MEMB      79              0.0000000000
     10525        85  POPC      H4R            48.2785783328       24.6536338652       34.2896403123  MEMB      79              0.0000000000
     10526        85  POPC      H4S            47.8842099741       23.1088544636       33.5065018101  MEMB      79              0.0000000000
     10527        85  POPC      C25            46.6974247779       24.8113380498       32.8632405216  MEMB      79              0.0000000000
     10528        85  POPC      H5R            45.8885078763       24.2426438978       33.3761875692  MEMB      79              0.0000000000
     10529        85  POPC      H5S            46.5506463888       24.7040379481       31.7735294537  MEMB      79              0.0000000000
     10530        85  POPC      C26            46.5068227686       26.2875464187       33.2301249410  MEMB      79              0.0000000000
     10531        85  POPC      H6R            47.3765329177       26.8807876362       32.8937007835  MEMB      79              0.0000000000
     10532        85  POPC      H6S            46.4548800553       26.3666244237       34.3382645901  MEMB      79              0.0000000000
     10533        85  POPC      C27            45.2503808653       26.8966916757       32.5845016425  MEMB      79              0.0000000000
     10534        85  POPC      H7R            44.3786818918       26.2350315801       32.7693843693  MEMB      79              0.0000000000
     10535        85  POPC      H7S            45.3987662514       26.9310210920       31.4816752023  MEMB      79              0.0000000000
     10536        85  POPC      C28            44.9122583899       28.3092641164       33.0907409989  MEMB      79              0.0000000000
     10537        85  POPC      H8R            44.0449339145       28.6983544308       32.5120049795  MEMB      79              0.0000000000
     10538        85  POPC      H8S            45.7775460697       28.9682955219       32.8641167305  MEMB      79              0.0000000000
     10539        85  POPC      C29            44.5724905294       28.2633097537       34.5606867413  MEMB      79              0.0000000000
     10540        85  POPC      H91            43.8322028390       27.4964717392       34.8238932036  MEMB      79              0.0000000000
     10541        85  POPC      C210           45.1085944078       29.0085378676       35.5418622391  MEMB      79              0.0000000000
     10542        85  POPC      H101           44.7848332648       28.8502855628       36.5814883709  MEMB      79              0.0000000000
     10543        85  POPC      C211           46.1685188357       30.0585663322       35.3688188228  MEMB      79              0.0000000000
     10544        85  POPC      H11R           45.8407942337       30.9781094982       35.8822374887  MEMB      79              0.0000000000
     10545        85  POPC      H11S           46.2967824171       30.3319878696       34.2991234484  MEMB      79              0.0000000000
     10546        85  POPC      C212           47.5573823744       29.6631868487       35.8979920175  MEMB      79              0.0000000000
     10547        85  POPC      H12R           48.3029444739       30.1998753952       35.2619226931  MEMB      79              0.0000000000
     10548        85  POPC      H12S           47.7229404275       28.5725058245       35.7697927576  MEMB      79              0.0000000000
     10549        85  POPC      C213           47.8453824839       30.0797229281       37.3446065922  MEMB      79              0.0000000000
     10550        85  POPC      H13R           47.2494983132       30.9679384741       37.6079902928  MEMB      79              0.0000000000
     10551        85  POPC      H13S           48.9217729111       30.3551956680       37.4373853617  MEMB      79              0.0000000000
     10552        85  POPC      C214           47.5083987947       29.0231390657       38.3872558786  MEMB      79              0.0000000000
     10553        85  POPC      H14R           48.1654615066       28.1407437131       38.2189905374  MEMB      79              0.0000000000
     10554        85  POPC      H14S           46.4530595457       28.6989739952       38.2585204364  MEMB      79              0.0000000000
     10555        85  POPC      C215           47.6998118543       29.5665555264       39.8109840939  MEMB      79              0.0000000000
     10556        85  POPC      H15R           46.9023602301       30.3055334581       40.0278474995  MEMB      79              0.0000000000
     10557        85  POPC      H15S           48.6610017649       30.1200979435       39.8639596921  MEMB      79              0.0000000000
     10558        85  POPC      C216           47.7001390431       28.4327780890       40.8409359833  MEMB      79              0.0000000000
     10559        85  POPC      H16R           48.1962261432       27.5545066456       40.3683672022  MEMB      79              0.0000000000
     10560        85  POPC      H16S           46.6470569113       28.1485052350       41.0548862803  MEMB      79              0.0000000000
     10561        85  POPC      C217           48.4486857527       28.7142782362       42.1511929684  MEMB      79              0.0000000000
     10562        85  POPC      H17R           48.6808381964       29.7987145605       42.2350098453  MEMB      79              0.0000000000
     10563        85  POPC      H17S           49.4218699798       28.1745027027       42.0992356033  MEMB      79              0.0000000000
     10564        85  POPC      C218           47.6841941899       28.2584394605       43.3975500133  MEMB      79              0.0000000000
     10565        85  POPC      H18R           47.0860845724       29.0965923797       43.7981551333  MEMB      79              0.0000000000
     10566        85  POPC      H18S           48.3601196976       27.9256640195       44.2080735890  MEMB      79              0.0000000000
     10567        85  POPC      H18T           46.9959014367       27.4220159121       43.1577388449  MEMB      79              0.0000000000
     10568        85  POPC      C33            48.7295587543       29.0562553513       30.6529797598  MEMB      79              0.0000000000
     10569        85  POPC      H3X            47.8101686219       29.4489889249       31.1493968036  MEMB      79              0.0000000000
     10570        85  POPC      H3Y            49.3387131729       29.9339183627       30.3398613753  MEMB      79              0.0000000000
     10571        85  POPC      C34            49.4961075338       28.2069169395       31.6790188546  MEMB      79              0.0000000000
     10572        85  POPC      H4X            50.5447854468       28.0526868851       31.3463565812  MEMB      79              0.0000000000
     10573        85  POPC      H4Y            48.9971398812       27.2189533268       31.6940780013  MEMB      79              0.0000000000
     10574        85  POPC      C35            49.4696673903       28.7775812944       33.1054721939  MEMB      79              0.0000000000
     10575        85  POPC      H5X            48.4380693433       29.1607284587       33.2879376039  MEMB      79              0.0000000000
     10576        85  POPC      H5Y            50.1616214754       29.6435759036       33.1684474880  MEMB      79              0.0000000000
     10577        85  POPC      C36            49.7729570435       27.7638933451       34.2308821410  MEMB      79              0.0000000000
     10578        85  POPC      H6X            48.9792230000       26.9888358702       34.2641605386  MEMB      79              0.0000000000
     10579        85  POPC      H6Y            49.7409830705       28.3130244152       35.1984664164  MEMB      79              0.0000000000
     10580        85  POPC      C37            51.1343576429       27.0626228794       34.1961647661  MEMB      79              0.0000000000
     10581        85  POPC      H7X            51.9081961959       27.8602142110       34.1326413326  MEMB      79              0.0000000000
     10582        85  POPC      H7Y            51.2210518797       26.4173772480       33.2953230503  MEMB      79              0.0000000000
     10583        85  POPC      C38            51.4004365924       26.2359603776       35.4781385114  MEMB      79              0.0000000000
     10584        85  POPC      H8X            51.2981772549       26.8929848797       36.3688267011  MEMB      79              0.0000000000
     10585        85  POPC      H8Y            52.4468616794       25.8679038662       35.4402603313  MEMB      79              0.0000000000
     10586        85  POPC      C39            50.4991712042       25.0018269607       35.6450760993  MEMB      79              0.0000000000
     10587        85  POPC      H9X            50.5586336728       24.4232422984       34.7003908985  MEMB      79              0.0000000000
     10588        85  POPC      H9Y            49.4503065749       25.3250756480       35.8118551598  MEMB      79              0.0000000000
     10589        85  POPC      C310           50.9229460520       24.0503382924       36.7740238514  MEMB      79              0.0000000000
     10590        85  POPC      H10X           50.6570767613       24.4904211827       37.7577413065  MEMB      79              0.0000000000
     10591        85  POPC      H10Y           52.0330909741       23.9597411043       36.7409667893  MEMB      79              0.0000000000
     10592        85  POPC      C311           50.3433340656       22.6259481793       36.6337391933  MEMB      79              0.0000000000
     10593        85  POPC      H11X           50.8360936051       21.9712600829       37.3893784272  MEMB      79              0.0000000000
     10594        85  POPC      H11Y           50.6080393149       22.2309278620       35.6258973877  MEMB      79              0.0000000000
     10595        85  POPC      C312           48.8225670330       22.4876175882       36.8254621209  MEMB      79              0.0000000000
     10596        85  POPC      H12X           48.5594075905       21.4105355363       36.7083191795  MEMB      79              0.0000000000
     10597        85  POPC      H12Y           48.2869092779       23.0431634350       36.0257666552  MEMB      79              0.0000000000
     10598        85  POPC      C313           48.3262769846       22.9687222086       38.1981600929  MEMB      79              0.0000000000
     10599        85  POPC      H13X           47.7372659357       23.9015386801       38.0737455239  MEMB      79              0.0000000000
     10600        85  POPC      H13Y           49.2093624802       23.2126197635       38.8329449166  MEMB      79              0.0000000000
     10601        85  POPC      C314           47.5081114491       21.9171101358       38.9629757898  MEMB      79              0.0000000000
     10602        85  POPC      H14X           47.3659293721       22.2553783914       40.0083745297  MEMB      79              0.0000000000
     10603        85  POPC      H14Y           48.1090519902       20.9804114809       39.0054794847  MEMB      79              0.0000000000
     10604        85  POPC      C315           46.1225427400       21.6008094173       38.3845861747  MEMB      79              0.0000000000
     10605        85  POPC      H15X           45.9681374302       20.5045465152       38.5190354595  MEMB      79              0.0000000000
     10606        85  POPC      H15Y           46.1014820559       21.8325204079       37.2976611130  MEMB      79              0.0000000000
     10607        85  POPC      C316           44.9429341905       22.2746050290       39.0869148901  MEMB      79              0.0000000000
     10608        85  POPC      H16X           43.9861143231       21.8205259004       38.7471471303  MEMB      79              0.0000000000
     10609        85  POPC      H16Y           44.9079104222       23.3572131245       38.8682139832  MEMB      79              0.0000000000
     10610        85  POPC      H16Z           45.0289661091       22.1436376130       40.1862712245  MEMB      79              0.0000000000
     10611        86  POPC      N              28.9979787936       51.2537201028       21.9684861512  MEMB      80              0.0000000000
     10612        86  POPC      C12            29.3715247779       50.0280901990       22.7895330050  MEMB      80              0.0000000000
     10613        86  POPC      H12A           29.8639279854       49.2964778965       22.1531171705  MEMB      80              0.0000000000
     10614        86  POPC      H12B           28.4758293428       49.5536991347       23.1636072761  MEMB      80              0.0000000000
     10615        86  POPC      C13            30.2607656427       51.8526843938       21.4182259199  MEMB      80              0.0000000000
     10616        86  POPC      H13A           30.1782173070       52.9340410329       21.3759091655  MEMB      80              0.0000000000
     10617        86  POPC      H13B           31.0801136876       51.6408807406       22.1152088412  MEMB      80              0.0000000000
     10618        86  POPC      H13C           30.5471696137       51.4705068771       20.4568544158  MEMB      80              0.0000000000
     10619        86  POPC      C14            28.0675684251       50.8500336278       20.8653368904  MEMB      80              0.0000000000
     10620        86  POPC      H14A           27.0682985910       50.6885195289       21.2442997508  MEMB      80              0.0000000000
     10621        86  POPC      H14B           27.9889151063       51.6208134708       20.1077695790  MEMB      80              0.0000000000
     10622        86  POPC      H14C           28.3800442680       49.9147890159       20.3954445790  MEMB      80              0.0000000000
     10623        86  POPC      C15            28.4172198577       52.3258621797       22.8354127807  MEMB      80              0.0000000000
     10624        86  POPC      H15A           29.2010419101       52.6527306227       23.5279328181  MEMB      80              0.0000000000
     10625        86  POPC      H15B           27.5825892995       51.9875659529       23.4263866187  MEMB      80              0.0000000000
     10626        86  POPC      H15C           28.1267328027       53.2027181855       22.2573391237  MEMB      80              0.0000000000
     10627        86  POPC      C11            30.3191384058       50.2257365040       23.9905541812  MEMB      80              0.0000000000
     10628        86  POPC      H11A           30.3237265501       49.2536232196       24.5171712008  MEMB      80              0.0000000000
     10629        86  POPC      H11B           29.9201297858       50.9940161028       24.6940659297  MEMB      80              0.0000000000
     10630        86  POPC      P              32.6739373792       51.1473032670       24.5969634560  MEMB      80              0.0000000000
     10631        86  POPC      O13            32.4083766120       52.6008018970       24.6203985625  MEMB      80              0.0000000000
     10632        86  POPC      O14            34.0333037886       50.7648285393       24.1382113964  MEMB      80              0.0000000000
     10633        86  POPC      O12            31.6503875506       50.4981657239       23.5650214133  MEMB      80              0.0000000000
     10634        86  POPC      O11            32.3017099701       50.4383938095       25.9839327352  MEMB      80              0.0000000000
     10635        86  POPC      C1             32.5843398454       49.0193726421       26.0587518302  MEMB      80              0.0000000000
     10636        86  POPC      HA             33.6854997507       48.8548452011       26.0863510654  MEMB      80              0.0000000000
     10637        86  POPC      HB             32.1650891930       48.4805341083       25.1755960251  MEMB      80              0.0000000000
     10638        86  POPC      C2             31.9976447637       48.2568526908       27.2957654716  MEMB      80              0.0000000000
     10639        86  POPC      HS             32.0603075274       47.1656999429       27.0691729097  MEMB      80              0.0000000000
     10640        86  POPC      O21            30.6437046743       48.6203993864       27.5669434848  MEMB      80              0.0000000000
     10641        86  POPC      C21            29.7317161480       48.1610612331       26.7524449966  MEMB      80              0.0000000000
     10642        86  POPC      O22            29.8901905365       47.3352514742       25.8695837435  MEMB      80              0.0000000000
     10643        86  POPC      C22            28.3679324699       48.7835853900       27.0915673442  MEMB      80              0.0000000000
     10644        86  POPC      H2R            27.7562023942       47.9645670464       27.5276308775  MEMB      80              0.0000000000
     10645        86  POPC      H2S            27.9046801441       49.1038690722       26.1392502918  MEMB      80              0.0000000000
     10646        86  POPC      C3             32.8078096313       48.4604402641       28.6081150314  MEMB      80              0.0000000000
     10647        86  POPC      HX             33.8428765197       48.0710927151       28.4813047448  MEMB      80              0.0000000000
     10648        86  POPC      HY             32.3177506701       47.8288121538       29.3856074875  MEMB      80              0.0000000000
     10649        86  POPC      O31            32.7779598396       49.8199231080       29.0750801438  MEMB      80              0.0000000000
     10650        86  POPC      C31            33.7367333259       50.6154655240       28.6221447114  MEMB      80              0.0000000000
     10651        86  POPC      O32            34.6932947354       50.2682636804       27.9516318801  MEMB      80              0.0000000000
     10652        86  POPC      C32            33.5261874743       52.0279470568       29.1669687612  MEMB      80              0.0000000000
     10653        86  POPC      H2X            32.7332431885       52.5156467939       28.5652972441  MEMB      80              0.0000000000
     10654        86  POPC      H2Y            34.4788316412       52.5774540313       29.0260550886  MEMB      80              0.0000000000
     10655        86  POPC      C23            28.4048348943       49.9748330479       28.0836608309  MEMB      80              0.0000000000
     10656        86  POPC      H3R            28.9411736099       49.6833775090       29.0156635924  MEMB      80              0.0000000000
     10657        86  POPC      H3S            27.3639631918       50.2266854102       28.3855920857  MEMB      80              0.0000000000
     10658        86  POPC      C24            29.0554475914       51.2344039801       27.4879413920  MEMB      80              0.0000000000
     10659        86  POPC      H4R            28.5054507815       51.5677732712       26.5837142252  MEMB      80              0.0000000000
     10660        86  POPC      H4S            30.0967930111       50.9865415149       27.1748377546  MEMB      80              0.0000000000
     10661        86  POPC      C25            29.1479410976       52.3977669432       28.4868593024  MEMB      80              0.0000000000
     10662        86  POPC      H5R            29.8719124082       53.1452444603       28.0876830937  MEMB      80              0.0000000000
     10663        86  POPC      H5S            29.5588765586       52.0150388691       29.4472584715  MEMB      80              0.0000000000
     10664        86  POPC      C26            27.8083993661       53.1090840541       28.7195733683  MEMB      80              0.0000000000
     10665        86  POPC      H6R            27.0703039206       52.3897101717       29.1342513869  MEMB      80              0.0000000000
     10666        86  POPC      H6S            27.4296319540       53.4569199842       27.7331398011  MEMB      80              0.0000000000
     10667        86  POPC      C27            27.9305715845       54.3252865725       29.6522331086  MEMB      80              0.0000000000
     10668        86  POPC      H7R            26.9583560297       54.8688224023       29.6664017112  MEMB      80              0.0000000000
     10669        86  POPC      H7S            28.6922472100       55.0169407910       29.2253162069  MEMB      80              0.0000000000
     10670        86  POPC      C28            28.3413315784       53.9880121897       31.1008829394  MEMB      80              0.0000000000
     10671        86  POPC      H8R            28.4254524470       54.9583789195       31.6365993164  MEMB      80              0.0000000000
     10672        86  POPC      H8S            29.3514954630       53.5209611271       31.1010744026  MEMB      80              0.0000000000
     10673        86  POPC      C29            27.3341935971       53.1043178929       31.7930434992  MEMB      80              0.0000000000
     10674        86  POPC      H91            26.4348994633       52.8840112210       31.2017978842  MEMB      80              0.0000000000
     10675        86  POPC      C210           27.4393590240       52.5656058668       33.0194696361  MEMB      80              0.0000000000
     10676        86  POPC      H101           26.5992520837       51.9665678462       33.4066537156  MEMB      80              0.0000000000
     10677        86  POPC      C211           28.5974447663       52.7348915446       33.9681775214  MEMB      80              0.0000000000
     10678        86  POPC      H11R           29.4364093714       53.2967098859       33.4980605118  MEMB      80              0.0000000000
     10679        86  POPC      H11S           29.0060362761       51.7445106893       34.2680459843  MEMB      80              0.0000000000
     10680        86  POPC      C212           28.1673537367       53.4973925712       35.2277900734  MEMB      80              0.0000000000
     10681        86  POPC      H12R           27.3814541816       52.9451371793       35.7879543217  MEMB      80              0.0000000000
     10682        86  POPC      H12S           27.7286223351       54.4753325701       34.9186133741  MEMB      80              0.0000000000
     10683        86  POPC      C213           29.3475381897       53.7830450679       36.1614372842  MEMB      80              0.0000000000
     10684        86  POPC      H13R           30.1749811174       54.2132408498       35.5521087824  MEMB      80              0.0000000000
     10685        86  POPC      H13S           29.7311250184       52.8442287973       36.6155839185  MEMB      80              0.0000000000
     10686        86  POPC      C214           28.9579363902       54.7944223940       37.2423463288  MEMB      80              0.0000000000
     10687        86  POPC      H14R           28.4504265594       54.2805511457       38.0850581415  MEMB      80              0.0000000000
     10688        86  POPC      H14S           28.2093262970       55.4879758909       36.8002748568  MEMB      80              0.0000000000
     10689        86  POPC      C215           30.1449962838       55.6313824601       37.7275883615  MEMB      80              0.0000000000
     10690        86  POPC      H15R           29.7677176149       56.5040037001       38.3070373274  MEMB      80              0.0000000000
     10691        86  POPC      H15S           30.6971671611       56.0336587504       36.8480305396  MEMB      80              0.0000000000
     10692        86  POPC      C216           31.0974991682       54.8449756257       38.6228075891  MEMB      80              0.0000000000
     10693        86  POPC      H16R           32.0140131669       55.4576685746       38.7738756093  MEMB      80              0.0000000000
     10694        86  POPC      H16S           31.4075740142       53.9003958400       38.1248376493  MEMB      80              0.0000000000
     10695        86  POPC      C217           30.4855058858       54.5435776264       39.9944286529  MEMB      80              0.0000000000
     10696        86  POPC      H17R           29.6122854279       53.8628100796       39.8915993293  MEMB      80              0.0000000000
     10697        86  POPC      H17S           30.1181564006       55.5005638695       40.4341463486  MEMB      80              0.0000000000
     10698        86  POPC      C218           31.5102863356       53.9168767249       40.9269960157  MEMB      80              0.0000000000
     10699        86  POPC      H18R           31.1486933555       53.8715740144       41.9746504377  MEMB      80              0.0000000000
     10700        86  POPC      H18S           32.4222716421       54.5400628426       40.9035526265  MEMB      80              0.0000000000
     10701        86  POPC      H18T           31.7863563890       52.8970453287       40.5839269770  MEMB      80              0.0000000000
     10702        86  POPC      C33            33.1457468484       51.9945511089       30.6619798092  MEMB      80              0.0000000000
     10703        86  POPC      H3X            33.8787113218       51.3533450784       31.2021973604  MEMB      80              0.0000000000
     10704        86  POPC      H3Y            32.1388045995       51.5236029094       30.7650206088  MEMB      80              0.0000000000
     10705        86  POPC      C34            33.0983444388       53.3682688048       31.3333149156  MEMB      80              0.0000000000
     10706        86  POPC      H4X            32.4170689491       54.0280675658       30.7476959798  MEMB      80              0.0000000000
     10707        86  POPC      H4Y            34.1091110226       53.8300192149       31.3363315072  MEMB      80              0.0000000000
     10708        86  POPC      C35            32.5745768656       53.2760920125       32.7728354186  MEMB      80              0.0000000000
     10709        86  POPC      H5X            31.5667850543       52.8030313866       32.7550922458  MEMB      80              0.0000000000
     10710        86  POPC      H5Y            32.4438892960       54.3025224396       33.1755217688  MEMB      80              0.0000000000
     10711        86  POPC      C36            33.4869890062       52.4938652423       33.7319611221  MEMB      80              0.0000000000
     10712        86  POPC      H6X            33.8446456658       53.2059367522       34.5106698627  MEMB      80              0.0000000000
     10713        86  POPC      H6Y            34.3840980739       52.1092423413       33.2021627880  MEMB      80              0.0000000000
     10714        86  POPC      C37            32.7755919707       51.3290982582       34.4368296089  MEMB      80              0.0000000000
     10715        86  POPC      H7X            31.7194258414       51.6147527608       34.6377654239  MEMB      80              0.0000000000
     10716        86  POPC      H7Y            33.2665211888       51.1588020133       35.4227385108  MEMB      80              0.0000000000
     10717        86  POPC      C38            32.8198546652       50.0102616104       33.6497530023  MEMB      80              0.0000000000
     10718        86  POPC      H8X            33.8518468078       49.5944797517       33.6950229942  MEMB      80              0.0000000000
     10719        86  POPC      H8Y            32.5805149814       50.2061182439       32.5823237581  MEMB      80              0.0000000000
     10720        86  POPC      C39            31.8142615328       48.9642892713       34.1541895555  MEMB      80              0.0000000000
     10721        86  POPC      H9X            31.9486446933       48.0299703815       33.5636473599  MEMB      80              0.0000000000
     10722        86  POPC      H9Y            30.7860186428       49.3429605164       33.9544934071  MEMB      80              0.0000000000
     10723        86  POPC      C310           31.9384612049       48.6228652811       35.6446550980  MEMB      80              0.0000000000
     10724        86  POPC      H10X           31.9329755283       49.5458982564       36.2632847515  MEMB      80              0.0000000000
     10725        86  POPC      H10Y           32.9106282690       48.1056454846       35.8153854450  MEMB      80              0.0000000000
     10726        86  POPC      C311           30.7827401337       47.7258435982       36.1078867988  MEMB      80              0.0000000000
     10727        86  POPC      H11X           30.7048613956       46.8701464748       35.4032321976  MEMB      80              0.0000000000
     10728        86  POPC      H11Y           29.8233725386       48.2867126784       36.0490435529  MEMB      80              0.0000000000
     10729        86  POPC      C312           30.9702172005       47.1682235885       37.5240122564  MEMB      80              0.0000000000
     10730        86  POPC      H12X           32.0173005921       46.8105529864       37.6370725000  MEMB      80              0.0000000000
     10731        86  POPC      H12Y           30.3059292039       46.2821394899       37.6353311554  MEMB      80              0.0000000000
     10732        86  POPC      C313           30.6317897485       48.1815327167       38.6291838225  MEMB      80              0.0000000000
     10733        86  POPC      H13X           29.6676463589       48.6831335714       38.3899632603  MEMB      80              0.0000000000
     10734        86  POPC      H13Y           31.4218186388       48.9663220698       38.6366810655  MEMB      80              0.0000000000
     10735        86  POPC      C314           30.5331167186       47.5451718691       40.0279283526  MEMB      80              0.0000000000
     10736        86  POPC      H14X           31.0645246023       48.1862772824       40.7649367503  MEMB      80              0.0000000000
     10737        86  POPC      H14Y           31.0270433229       46.5503372903       40.0220218662  MEMB      80              0.0000000000
     10738        86  POPC      C315           29.1010567826       47.2985338192       40.5052139082  MEMB      80              0.0000000000
     10739        86  POPC      H15X           28.5131456372       48.2414657605       40.4503128648  MEMB      80              0.0000000000
     10740        86  POPC      H15Y           29.1307261819       46.9809267642       41.5730087104  MEMB      80              0.0000000000
     10741        86  POPC      C316           28.4169421558       46.2088301568       39.6869290120  MEMB      80              0.0000000000
     10742        86  POPC      H16X           29.0564412898       45.3058892202       39.6113419659  MEMB      80              0.0000000000
     10743        86  POPC      H16Y           28.2324919259       46.5675094265       38.6515488482  MEMB      80              0.0000000000
     10744        86  POPC      H16Z           27.4502521190       45.9176187363       40.1505293209  MEMB      80              0.0000000000
     10745        87  POPC      N              16.0997320855       42.7617817319       21.6684615405  MEMB      81              0.0000000000
     10746        87  POPC      C12            16.4685582896       43.1976497769       23.0765244486  MEMB      81              0.0000000000
     10747        87  POPC      H12A           15.5666634202       43.3460151084       23.6576314023  MEMB      81              0.0000000000
     10748        87  POPC      H12B           17.0000088966       44.1466593529       23.0255856695  MEMB      81              0.0000000000
     10749        87  POPC      C13            15.0536460320       41.6723254082       21.6776803104  MEMB      81              0.0000000000
     10750        87  POPC      H13A           14.1066812003       41.9998512966       22.0641829939  MEMB      81              0.0000000000
     10751        87  POPC      H13B           14.9072183561       41.2546139296       20.6891930072  MEMB      81              0.0000000000
     10752        87  POPC      H13C           15.4220157020       40.8478812884       22.3031043536  MEMB      81              0.0000000000
     10753        87  POPC      C14            15.6508601643       43.9725883133       20.9216611988  MEMB      81              0.0000000000
     10754        87  POPC      H14A           15.4338299206       43.7094062505       19.8949378361  MEMB      81              0.0000000000
     10755        87  POPC      H14B           14.7899725097       44.4411534370       21.3819170495  MEMB      81              0.0000000000
     10756        87  POPC      H14C           16.4316535139       44.7435427353       20.8963728531  MEMB      81              0.0000000000
     10757        87  POPC      C15            17.3092007430       42.1306164812       21.0362080080  MEMB      81              0.0000000000
     10758        87  POPC      H15A           18.1041891641       42.8395496140       20.8481039137  MEMB      81              0.0000000000
     10759        87  POPC      H15B           17.0682831878       41.6163235563       20.1191126978  MEMB      81              0.0000000000
     10760        87  POPC      H15C           17.7240613648       41.3785405575       21.7251626326  MEMB      81              0.0000000000
     10761        87  POPC      C11            17.3666400044       42.2374032601       23.8674330929  MEMB      81              0.0000000000
     10762        87  POPC      H11A           17.3181833173       42.5501188541       24.9430642181  MEMB      81              0.0000000000
     10763        87  POPC      H11B           18.4264044277       42.3488349401       23.5448380416  MEMB      81              0.0000000000
     10764        87  POPC      P              17.0481184803       39.8815505547       24.8432554187  MEMB      81              0.0000000000
     10765        87  POPC      O13            18.3347757010       40.1376912972       25.5073021535  MEMB      81              0.0000000000
     10766        87  POPC      O14            16.6941610998       38.5223346698       24.3813584241  MEMB      81              0.0000000000
     10767        87  POPC      O12            16.9507077897       40.8923568358       23.6381448030  MEMB      81              0.0000000000
     10768        87  POPC      O11            15.8833760011       40.4229281441       25.7614012492  MEMB      81              0.0000000000
     10769        87  POPC      C1             15.2163494827       39.4845373274       26.6066174310  MEMB      81              0.0000000000
     10770        87  POPC      HA             15.9256331512       38.7964168718       27.1208309907  MEMB      81              0.0000000000
     10771        87  POPC      HB             14.5235958322       38.8609933423       25.9928336647  MEMB      81              0.0000000000
     10772        87  POPC      C2             14.3783374075       40.1906751842       27.7006588079  MEMB      81              0.0000000000
     10773        87  POPC      HS             13.5471594519       40.7152830467       27.1701877497  MEMB      81              0.0000000000
     10774        87  POPC      O21            15.1772863241       41.1005116024       28.4993210429  MEMB      81              0.0000000000
     10775        87  POPC      C21            15.0699991540       42.3948427484       28.1848545904  MEMB      81              0.0000000000
     10776        87  POPC      O22            14.3180548693       42.8732728312       27.3550585928  MEMB      81              0.0000000000
     10777        87  POPC      C22            15.8876935092       43.2501348841       29.1547676514  MEMB      81              0.0000000000
     10778        87  POPC      H2R            15.7825107978       42.7956903974       30.1577633621  MEMB      81              0.0000000000
     10779        87  POPC      H2S            15.4268738822       44.2595190428       29.1788933422  MEMB      81              0.0000000000
     10780        87  POPC      C3             13.7038334809       39.1044734266       28.6031796166  MEMB      81              0.0000000000
     10781        87  POPC      HX             13.2334686731       38.3981517161       27.8749596531  MEMB      81              0.0000000000
     10782        87  POPC      HY             12.9057298664       39.6213111686       29.1769229516  MEMB      81              0.0000000000
     10783        87  POPC      O31            14.5703987892       38.4063199771       29.5290570333  MEMB      81              0.0000000000
     10784        87  POPC      C31            14.0916838882       37.2091042703       29.9137299380  MEMB      81              0.0000000000
     10785        87  POPC      O32            13.2607068040       36.5440841908       29.3259839583  MEMB      81              0.0000000000
     10786        87  POPC      C32            14.7095998344       36.8414922340       31.2721345511  MEMB      81              0.0000000000
     10787        87  POPC      H2X            15.8036313238       37.0119277965       31.2288809085  MEMB      81              0.0000000000
     10788        87  POPC      H2Y            14.5258718067       35.7571489972       31.4225713207  MEMB      81              0.0000000000
     10789        87  POPC      C23            17.3744427188       43.3730641922       28.7564996260  MEMB      81              0.0000000000
     10790        87  POPC      H3R            17.4635066389       44.1092263249       27.9278761636  MEMB      81              0.0000000000
     10791        87  POPC      H3S            17.7396051738       42.3977537315       28.3560737889  MEMB      81              0.0000000000
     10792        87  POPC      C24            18.3089899741       43.8025775695       29.9085054709  MEMB      81              0.0000000000
     10793        87  POPC      H4R            18.0678412623       44.8457175385       30.2101278957  MEMB      81              0.0000000000
     10794        87  POPC      H4S            19.3560734538       43.7945248243       29.5280241120  MEMB      81              0.0000000000
     10795        87  POPC      C25            18.2643723101       42.8988695514       31.1517097013  MEMB      81              0.0000000000
     10796        87  POPC      H5R            17.3058528591       43.0757303791       31.6880721172  MEMB      81              0.0000000000
     10797        87  POPC      H5S            19.0856319202       43.1864875623       31.8468102475  MEMB      81              0.0000000000
     10798        87  POPC      C26            18.3727766010       41.3968726510       30.8444731708  MEMB      81              0.0000000000
     10799        87  POPC      H6R            19.3993249698       41.1331272593       30.5047926609  MEMB      81              0.0000000000
     10800        87  POPC      H6S            17.6778875492       41.1353900048       30.0160359527  MEMB      81              0.0000000000
     10801        87  POPC      C27            17.9503836246       40.5214734188       32.0272897068  MEMB      81              0.0000000000
     10802        87  POPC      H7R            17.8003497079       39.4814494354       31.6556573408  MEMB      81              0.0000000000
     10803        87  POPC      H7S            16.9752014376       40.9005384177       32.4069592899  MEMB      81              0.0000000000
     10804        87  POPC      C28            18.9790695984       40.5128793783       33.1633535780  MEMB      81              0.0000000000
     10805        87  POPC      H8R            19.1963760555       41.5659641324       33.4428603092  MEMB      81              0.0000000000
     10806        87  POPC      H8S            19.9291814700       40.0855318813       32.7753487808  MEMB      81              0.0000000000
     10807        87  POPC      C29            18.4621709112       39.6952701001       34.3193784040  MEMB      81              0.0000000000
     10808        87  POPC      H91            18.0698170544       38.7060896382       34.0382423758  MEMB      81              0.0000000000
     10809        87  POPC      C210           18.4071617301       40.0789522013       35.6041987049  MEMB      81              0.0000000000
     10810        87  POPC      H101           17.9770782037       39.3958409116       36.3533288054  MEMB      81              0.0000000000
     10811        87  POPC      C211           18.8581361267       41.4153722578       36.1301178729  MEMB      81              0.0000000000
     10812        87  POPC      H11R           19.6341374282       41.8812577393       35.4814411325  MEMB      81              0.0000000000
     10813        87  POPC      H11S           19.3170767673       41.3055330267       37.1362125428  MEMB      81              0.0000000000
     10814        87  POPC      C212           17.6557216594       42.3679570810       36.2181586842  MEMB      81              0.0000000000
     10815        87  POPC      H12R           16.9446433181       41.9867388059       36.9835108716  MEMB      81              0.0000000000
     10816        87  POPC      H12S           17.1279647953       42.4120163298       35.2383622768  MEMB      81              0.0000000000
     10817        87  POPC      C213           18.0811295391       43.7893377275       36.5914493739  MEMB      81              0.0000000000
     10818        87  POPC      H13R           18.6838224008       44.2008271394       35.7562570242  MEMB      81              0.0000000000
     10819        87  POPC      H13S           18.7253945327       43.7122367751       37.4930835848  MEMB      81              0.0000000000
     10820        87  POPC      C214           16.9034388741       44.7335392161       36.8660349143  MEMB      81              0.0000000000
     10821        87  POPC      H14R           16.3114341846       44.3010834301       37.6955755039  MEMB      81              0.0000000000
     10822        87  POPC      H14S           16.2529597164       44.7551688650       35.9618126055  MEMB      81              0.0000000000
     10823        87  POPC      C215           17.3121515483       46.1770977440       37.2221522111  MEMB      81              0.0000000000
     10824        87  POPC      H15R           16.4011931658       46.8035487424       37.3421949467  MEMB      81              0.0000000000
     10825        87  POPC      H15S           17.8723417546       46.5902713773       36.3531166680  MEMB      81              0.0000000000
     10826        87  POPC      C216           18.1948879274       46.3193442056       38.4792426740  MEMB      81              0.0000000000
     10827        87  POPC      H16R           18.8992797679       47.1666300343       38.3186712298  MEMB      81              0.0000000000
     10828        87  POPC      H16S           18.8140750220       45.4115911846       38.6259208683  MEMB      81              0.0000000000
     10829        87  POPC      C217           17.4224638258       46.6090374600       39.7751891177  MEMB      81              0.0000000000
     10830        87  POPC      H17R           16.4790672151       46.0191468255       39.7803126233  MEMB      81              0.0000000000
     10831        87  POPC      H17S           17.1377017919       47.6855365077       39.7850057309  MEMB      81              0.0000000000
     10832        87  POPC      C218           18.2304398423       46.2876152356       41.0388333351  MEMB      81              0.0000000000
     10833        87  POPC      H18R           17.6557702058       46.5531015877       41.9524592976  MEMB      81              0.0000000000
     10834        87  POPC      H18S           19.1927656259       46.8425687863       41.0417138569  MEMB      81              0.0000000000
     10835        87  POPC      H18T           18.4764386162       45.2052671408       41.0837664524  MEMB      81              0.0000000000
     10836        87  POPC      C33            14.1063519157       37.6347042734       32.4658366708  MEMB      81              0.0000000000
     10837        87  POPC      H3X            14.5306902866       37.2121854687       33.4060469492  MEMB      81              0.0000000000
     10838        87  POPC      H3Y            13.0040868676       37.4947239736       32.5115629678  MEMB      81              0.0000000000
     10839        87  POPC      C34            14.4472600531       39.1360184046       32.4389766827  MEMB      81              0.0000000000
     10840        87  POPC      H4X            13.8965690201       39.6316263265       31.6081672134  MEMB      81              0.0000000000
     10841        87  POPC      H4Y            15.5322802520       39.2433416390       32.2239143034  MEMB      81              0.0000000000
     10842        87  POPC      C35            14.1253856917       39.8710451725       33.7507489456  MEMB      81              0.0000000000
     10843        87  POPC      H5X            14.6704463158       39.4058056991       34.6010211278  MEMB      81              0.0000000000
     10844        87  POPC      H5Y            13.0486769863       39.7620360151       33.9708850615  MEMB      81              0.0000000000
     10845        87  POPC      C36            14.4438612270       41.3755751363       33.6973546252  MEMB      81              0.0000000000
     10846        87  POPC      H6X            14.5389315496       41.7003811039       32.6371992697  MEMB      81              0.0000000000
     10847        87  POPC      H6Y            15.4355666451       41.5356974327       34.1714017493  MEMB      81              0.0000000000
     10848        87  POPC      C37            13.3801613351       42.2670310433       34.3686443932  MEMB      81              0.0000000000
     10849        87  POPC      H7X            12.4606870230       42.2561284854       33.7390665512  MEMB      81              0.0000000000
     10850        87  POPC      H7Y            13.7590433860       43.3137362963       34.3957598706  MEMB      81              0.0000000000
     10851        87  POPC      C38            12.9813440183       41.8484330237       35.7934196791  MEMB      81              0.0000000000
     10852        87  POPC      H8X            12.5103141644       40.8447498268       35.7735142944  MEMB      81              0.0000000000
     10853        87  POPC      H8Y            12.2173100467       42.5599000661       36.1728678162  MEMB      81              0.0000000000
     10854        87  POPC      C39            14.1549777956       41.8364761547       36.7769868902  MEMB      81              0.0000000000
     10855        87  POPC      H9X            14.5259996790       42.8813190966       36.8781551934  MEMB      81              0.0000000000
     10856        87  POPC      H9Y            14.9835056347       41.2350025407       36.3525622398  MEMB      81              0.0000000000
     10857        87  POPC      C310           13.7766715635       41.2996847027       38.1654365104  MEMB      81              0.0000000000
     10858        87  POPC      H10X           12.6931777679       41.4711433791       38.3522727653  MEMB      81              0.0000000000
     10859        87  POPC      H10Y           14.3316057519       41.8858546358       38.9314613292  MEMB      81              0.0000000000
     10860        87  POPC      C311           14.1244081633       39.8170915981       38.3970315089  MEMB      81              0.0000000000
     10861        87  POPC      H11X           13.5211115219       39.1692506112       37.7257333994  MEMB      81              0.0000000000
     10862        87  POPC      H11Y           13.8237338252       39.5910558837       39.4385877263  MEMB      81              0.0000000000
     10863        87  POPC      C312           15.6245503804       39.5020431929       38.2246636687  MEMB      81              0.0000000000
     10864        87  POPC      H12X           16.2165713840       40.3560368204       38.6176693505  MEMB      81              0.0000000000
     10865        87  POPC      H12Y           15.8328630927       39.4269516649       37.1339865769  MEMB      81              0.0000000000
     10866        87  POPC      C313           16.1219787085       38.2064407249       38.8939030673  MEMB      81              0.0000000000
     10867        87  POPC      H13X           17.1841490781       38.0389193165       38.6035574854  MEMB      81              0.0000000000
     10868        87  POPC      H13Y           15.5244840295       37.3524367703       38.5066936986  MEMB      81              0.0000000000
     10869        87  POPC      C314           16.0577760265       38.2068761142       40.4282559223  MEMB      81              0.0000000000
     10870        87  POPC      H14X           15.0331967937       38.4923814558       40.7255285964  MEMB      81              0.0000000000
     10871        87  POPC      H14Y           16.7527192234       38.9554277434       40.8582797983  MEMB      81              0.0000000000
     10872        87  POPC      C315           16.3807197063       36.8443027190       41.0483621204  MEMB      81              0.0000000000
     10873        87  POPC      H15X           15.9953816754       36.0492700957       40.3781984149  MEMB      81              0.0000000000
     10874        87  POPC      H15Y           15.8511453953       36.7290405290       42.0194009214  MEMB      81              0.0000000000
     10875        87  POPC      C316           17.8689094806       36.6629464166       41.3167757661  MEMB      81              0.0000000000
     10876        87  POPC      H16X           18.0675164493       35.6992238372       41.8284188838  MEMB      81              0.0000000000
     10877        87  POPC      H16Y           18.2343851591       37.4810228057       41.9694845002  MEMB      81              0.0000000000
     10878        87  POPC      H16Z           18.4409053301       36.6994011269       40.3700734969  MEMB      81              0.0000000000
     10879        88  POPC      N              22.0587185253       18.6420614887       22.4675770211  MEMB      82              0.0000000000
     10880        88  POPC      C12            21.1614341185       17.5434723787       21.9023091877  MEMB      82              0.0000000000
     10881        88  POPC      H12A           21.0055301579       17.6866296276       20.8363491726  MEMB      82              0.0000000000
     10882        88  POPC      H12B           20.1722067111       17.6378060141       22.3425161122  MEMB      82              0.0000000000
     10883        88  POPC      C13            21.8848709271       18.7053480031       23.9532924563  MEMB      82              0.0000000000
     10884        88  POPC      H13A           20.8346604248       18.7318388174       24.1976604611  MEMB      82              0.0000000000
     10885        88  POPC      H13B           22.2989162264       17.7743169660       24.3609828946  MEMB      82              0.0000000000
     10886        88  POPC      H13C           22.3964696589       19.5520991469       24.3913445300  MEMB      82              0.0000000000
     10887        88  POPC      C14            23.5036635500       18.3048841828       22.2032169084  MEMB      82              0.0000000000
     10888        88  POPC      H14A           23.7592838824       17.3739186434       22.7129956121  MEMB      82              0.0000000000
     10889        88  POPC      H14B           23.6868563479       18.1576185338       21.1468072737  MEMB      82              0.0000000000
     10890        88  POPC      H14C           24.1735612827       19.0723335035       22.5691889264  MEMB      82              0.0000000000
     10891        88  POPC      C15            21.7281764147       19.9428289213       21.8237281432  MEMB      82              0.0000000000
     10892        88  POPC      H15A           22.3242129208       20.7532877005       22.2402201320  MEMB      82              0.0000000000
     10893        88  POPC      H15B           20.6642585369       20.1601786174       21.8606994324  MEMB      82              0.0000000000
     10894        88  POPC      H15C           22.0067801137       19.9070247891       20.7732627760  MEMB      82              0.0000000000
     10895        88  POPC      C11            21.6333978547       16.0842443381       22.0937195841  MEMB      82              0.0000000000
     10896        88  POPC      H11A           22.4868649580       15.8694924446       21.4114150717  MEMB      82              0.0000000000
     10897        88  POPC      H11B           20.7947027526       15.3973640253       21.8199505130  MEMB      82              0.0000000000
     10898        88  POPC      P              22.7873780836       14.6242511169       23.9406275214  MEMB      82              0.0000000000
     10899        88  POPC      O13            24.1553077930       15.0672001992       24.2595868502  MEMB      82              0.0000000000
     10900        88  POPC      O14            22.6321064830       13.5508001953       22.9298191872  MEMB      82              0.0000000000
     10901        88  POPC      O12            22.0216148497       15.9006812894       23.4361386411  MEMB      82              0.0000000000
     10902        88  POPC      O11            21.9471089183       14.3458288374       25.2265515650  MEMB      82              0.0000000000
     10903        88  POPC      C1             21.3243480719       15.4249962618       25.9214826134  MEMB      82              0.0000000000
     10904        88  POPC      HA             20.3548866587       15.6862943817       25.4322011016  MEMB      82              0.0000000000
     10905        88  POPC      HB             21.9569962246       16.3399043601       25.9391031343  MEMB      82              0.0000000000
     10906        88  POPC      C2             21.0263192036       14.9445257865       27.3524848466  MEMB      82              0.0000000000
     10907        88  POPC      HS             20.2489179189       15.6036422333       27.7988077897  MEMB      82              0.0000000000
     10908        88  POPC      O21            22.1986731231       14.9734166112       28.1926379633  MEMB      82              0.0000000000
     10909        88  POPC      C21            22.6729685835       16.1813588023       28.4820948780  MEMB      82              0.0000000000
     10910        88  POPC      O22            22.2208685109       17.2454663393       28.0952736679  MEMB      82              0.0000000000
     10911        88  POPC      C22            23.8810380915       16.0169743928       29.4033010826  MEMB      82              0.0000000000
     10912        88  POPC      H2R            24.7241125750       15.6143263719       28.8045662815  MEMB      82              0.0000000000
     10913        88  POPC      H2S            23.6100422719       15.2608776934       30.1692145369  MEMB      82              0.0000000000
     10914        88  POPC      C3             20.4372449159       13.4978131640       27.2710079781  MEMB      82              0.0000000000
     10915        88  POPC      HX             20.9932434672       12.8918964969       26.5292334817  MEMB      82              0.0000000000
     10916        88  POPC      HY             19.3894314063       13.5569297057       26.9033775015  MEMB      82              0.0000000000
     10917        88  POPC      O31            20.5473895999       12.7803210439       28.5035813756  MEMB      82              0.0000000000
     10918        88  POPC      C31            19.7818101585       13.2470920646       29.4638467095  MEMB      82              0.0000000000
     10919        88  POPC      O32            18.9179432588       14.0981692239       29.3476474487  MEMB      82              0.0000000000
     10920        88  POPC      C32            20.1511992890       12.5524475680       30.7586344509  MEMB      82              0.0000000000
     10921        88  POPC      H2X            20.6114626913       11.5658014189       30.5442723231  MEMB      82              0.0000000000
     10922        88  POPC      H2Y            19.2101013942       12.3737448709       31.3054729290  MEMB      82              0.0000000000
     10923        88  POPC      C23            24.2909170216       17.3397727031       30.0974564704  MEMB      82              0.0000000000
     10924        88  POPC      H3R            23.4258729469       17.7463733025       30.6680828654  MEMB      82              0.0000000000
     10925        88  POPC      H3S            24.5757115637       18.0984352047       29.3349518183  MEMB      82              0.0000000000
     10926        88  POPC      C24            25.4602647506       17.1133994381       31.0621271171  MEMB      82              0.0000000000
     10927        88  POPC      H4R            26.3448008790       16.7883151797       30.4688367022  MEMB      82              0.0000000000
     10928        88  POPC      H4S            25.1796228743       16.2802358360       31.7359651550  MEMB      82              0.0000000000
     10929        88  POPC      C25            25.8604205929       18.3205176102       31.9232304616  MEMB      82              0.0000000000
     10930        88  POPC      H5R            26.0023902958       19.2132099321       31.2769288025  MEMB      82              0.0000000000
     10931        88  POPC      H5S            26.8484987520       18.0912240581       32.3883740295  MEMB      82              0.0000000000
     10932        88  POPC      C26            24.8852613209       18.6518919934       33.0685438838  MEMB      82              0.0000000000
     10933        88  POPC      H6R            23.9048371315       18.9771064798       32.6573301581  MEMB      82              0.0000000000
     10934        88  POPC      H6S            25.3130064984       19.5132104415       33.6288936359  MEMB      82              0.0000000000
     10935        88  POPC      C27            24.6632290389       17.4852854216       34.0474110599  MEMB      82              0.0000000000
     10936        88  POPC      H7R            25.6346786943       16.9842983270       34.2560290014  MEMB      82              0.0000000000
     10937        88  POPC      H7S            24.0122931411       16.7319771195       33.5533751501  MEMB      82              0.0000000000
     10938        88  POPC      C28            23.9975273204       17.9039336107       35.3719249431  MEMB      82              0.0000000000
     10939        88  POPC      H8R            23.6574115648       16.9853865971       35.8997924828  MEMB      82              0.0000000000
     10940        88  POPC      H8S            23.0761765269       18.4853701902       35.1506910027  MEMB      82              0.0000000000
     10941        88  POPC      C29            24.9188569482       18.7100314496       36.2497910156  MEMB      82              0.0000000000
     10942        88  POPC      H91            24.7483430473       19.7965137271       36.2245879519  MEMB      82              0.0000000000
     10943        88  POPC      C210           25.8904439009       18.2222176845       37.0405213083  MEMB      82              0.0000000000
     10944        88  POPC      H101           26.4482230245       18.9105182012       37.6852886607  MEMB      82              0.0000000000
     10945        88  POPC      C211           26.2728459139       16.7808895638       37.2278240390  MEMB      82              0.0000000000
     10946        88  POPC      H11R           27.3449789664       16.6196335151       36.9752339759  MEMB      82              0.0000000000
     10947        88  POPC      H11S           25.6846806161       16.1192667831       36.5581272375  MEMB      82              0.0000000000
     10948        88  POPC      C212           26.0357308233       16.3949313885       38.6987180733  MEMB      82              0.0000000000
     10949        88  POPC      H12R           25.0265793640       16.7394777052       39.0257436391  MEMB      82              0.0000000000
     10950        88  POPC      H12S           26.7848196155       16.9138622549       39.3405487633  MEMB      82              0.0000000000
     10951        88  POPC      C213           26.1166433825       14.8861927044       38.9699579723  MEMB      82              0.0000000000
     10952        88  POPC      H13R           25.8517792993       14.7091780964       40.0370651133  MEMB      82              0.0000000000
     10953        88  POPC      H13S           27.1676276414       14.5492054432       38.8192756195  MEMB      82              0.0000000000
     10954        88  POPC      C214           25.2242869732       14.0127457497       38.0732407019  MEMB      82              0.0000000000
     10955        88  POPC      H14R           25.2096344080       12.9838519836       38.5002920669  MEMB      82              0.0000000000
     10956        88  POPC      H14S           25.6844391258       13.9660735303       37.0608079159  MEMB      82              0.0000000000
     10957        88  POPC      C215           23.7750041354       14.4692751232       37.9110866853  MEMB      82              0.0000000000
     10958        88  POPC      H15R           23.7332337936       15.5218920364       37.5577102218  MEMB      82              0.0000000000
     10959        88  POPC      H15S           23.2969593460       14.4179386716       38.9096622368  MEMB      82              0.0000000000
     10960        88  POPC      C216           22.9859220168       13.5897858923       36.9314261085  MEMB      82              0.0000000000
     10961        88  POPC      H16R           23.1198361696       12.5232837613       37.2275755888  MEMB      82              0.0000000000
     10962        88  POPC      H16S           23.3997392476       13.7290605161       35.9075826084  MEMB      82              0.0000000000
     10963        88  POPC      C217           21.4828325399       13.8823901470       36.9331247332  MEMB      82              0.0000000000
     10964        88  POPC      H17R           21.0027091769       13.3179501334       36.1016568953  MEMB      82              0.0000000000
     10965        88  POPC      H17S           21.3201135745       14.9662048294       36.7409806154  MEMB      82              0.0000000000
     10966        88  POPC      C218           20.8279156833       13.4874982912       38.2540830134  MEMB      82              0.0000000000
     10967        88  POPC      H18R           21.5320982992       12.8762986402       38.8580376791  MEMB      82              0.0000000000
     10968        88  POPC      H18S           19.9049459969       12.8969882336       38.0980425305  MEMB      82              0.0000000000
     10969        88  POPC      H18T           20.5666316693       14.3787301574       38.8573736448  MEMB      82              0.0000000000
     10970        88  POPC      C33            21.1149909751       13.4245495649       31.5817018309  MEMB      82              0.0000000000
     10971        88  POPC      H3X            22.1355300586       13.3688004249       31.1390369886  MEMB      82              0.0000000000
     10972        88  POPC      H3Y            21.1707536241       13.0042651660       32.6129276131  MEMB      82              0.0000000000
     10973        88  POPC      C34            20.6970779736       14.9022428202       31.6524986142  MEMB      82              0.0000000000
     10974        88  POPC      H4X            19.5920818080       14.9848684842       31.7432535880  MEMB      82              0.0000000000
     10975        88  POPC      H4Y            20.9802370387       15.4233221961       30.7096019223  MEMB      82              0.0000000000
     10976        88  POPC      C35            21.3461174829       15.6056840986       32.8422805896  MEMB      82              0.0000000000
     10977        88  POPC      H5X            22.4376135180       15.3902188425       32.8158558114  MEMB      82              0.0000000000
     10978        88  POPC      H5Y            20.9416706902       15.1521561024       33.7727206433  MEMB      82              0.0000000000
     10979        88  POPC      C36            21.1471836375       17.1298649591       32.8625929954  MEMB      82              0.0000000000
     10980        88  POPC      H6X            21.6356229527       17.5647044573       31.9615881534  MEMB      82              0.0000000000
     10981        88  POPC      H6Y            21.6795577624       17.5371182190       33.7489937432  MEMB      82              0.0000000000
     10982        88  POPC      C37            19.6885920724       17.6227538942       32.9088990555  MEMB      82              0.0000000000
     10983        88  POPC      H7X            19.2138579446       17.4038457396       31.9221317364  MEMB      82              0.0000000000
     10984        88  POPC      H7Y            19.7030213057       18.7302768690       33.0224612668  MEMB      82              0.0000000000
     10985        88  POPC      C38            18.8022497335       17.0126359583       34.0153207548  MEMB      82              0.0000000000
     10986        88  POPC      H8X            18.5611510118       15.9690487740       33.7082751896  MEMB      82              0.0000000000
     10987        88  POPC      H8Y            17.8414272432       17.5699096390       34.0479265361  MEMB      82              0.0000000000
     10988        88  POPC      C39            19.4007614111       16.9493623908       35.4335464621  MEMB      82              0.0000000000
     10989        88  POPC      H9X            20.4166301460       16.5039287811       35.3901169618  MEMB      82              0.0000000000
     10990        88  POPC      H9Y            18.7698330672       16.2581748816       36.0390325300  MEMB      82              0.0000000000
     10991        88  POPC      C310           19.4852791058       18.2955882292       36.1633754335  MEMB      82              0.0000000000
     10992        88  POPC      H10X           18.4616050768       18.6749086831       36.3738769375  MEMB      82              0.0000000000
     10993        88  POPC      H10Y           19.9808974573       19.0331011688       35.4953648387  MEMB      82              0.0000000000
     10994        88  POPC      C311           20.2831570035       18.2153341560       37.4793367467  MEMB      82              0.0000000000
     10995        88  POPC      H11X           20.3228208644       19.2296430333       37.9355892004  MEMB      82              0.0000000000
     10996        88  POPC      H11Y           21.3273768061       17.9041676140       37.2458004631  MEMB      82              0.0000000000
     10997        88  POPC      C312           19.6987016798       17.2521220531       38.5216955554  MEMB      82              0.0000000000
     10998        88  POPC      H12X           19.6921024849       16.2227209200       38.1049502195  MEMB      82              0.0000000000
     10999        88  POPC      H12Y           18.6391537312       17.5303053961       38.7120483702  MEMB      82              0.0000000000
     11000        88  POPC      C313           20.4758765687       17.2453980070       39.8550740206  MEMB      82              0.0000000000
     11001        88  POPC      H13X           19.9380588845       16.5671267820       40.5562428194  MEMB      82              0.0000000000
     11002        88  POPC      H13Y           20.4867043182       18.2598980957       40.3105622357  MEMB      82              0.0000000000
     11003        88  POPC      C314           21.9237069556       16.7470988323       39.7163449630  MEMB      82              0.0000000000
     11004        88  POPC      H14X           22.6147285894       17.5854868217       39.5017990030  MEMB      82              0.0000000000
     11005        88  POPC      H14Y           21.9446284549       16.0915250098       38.8220600739  MEMB      82              0.0000000000
     11006        88  POPC      C315           22.4259181754       15.9322039884       40.9210616652  MEMB      82              0.0000000000
     11007        88  POPC      H15X           23.4327550235       15.5141344475       40.6952571065  MEMB      82              0.0000000000
     11008        88  POPC      H15Y           21.7319137982       15.0707922727       41.0580837957  MEMB      82              0.0000000000
     11009        88  POPC      C316           22.5276469402       16.7048091367       42.2328394790  MEMB      82              0.0000000000
     11010        88  POPC      H16X           21.7001220354       17.4360909378       42.3185614793  MEMB      82              0.0000000000
     11011        88  POPC      H16Y           23.4893611873       17.2549283315       42.2962169659  MEMB      82              0.0000000000
     11012        88  POPC      H16Z           22.4809424659       16.0064739160       43.0951829189  MEMB      82              0.0000000000
     11013        89  POPC      N              42.4083012103       13.4940179298       21.9200136621  MEMB      83              0.0000000000
     11014        89  POPC      C12            42.7043076061       13.9211801927       23.3548716288  MEMB      83              0.0000000000
     11015        89  POPC      H12A           41.7781833138       13.8764155632       23.9249676541  MEMB      83              0.0000000000
     11016        89  POPC      H12B           43.0804500167       14.9297834607       23.3614107165  MEMB      83              0.0000000000
     11017        89  POPC      C13            41.9621070107       12.0626618938       21.9232841149  MEMB      83              0.0000000000
     11018        89  POPC      H13A           41.9694283724       11.6317063557       20.9393260057  MEMB      83              0.0000000000
     11019        89  POPC      H13B           42.6423336348       11.4916376206       22.5725863934  MEMB      83              0.0000000000
     11020        89  POPC      H13C           40.9826981107       11.9844048511       22.3608110992  MEMB      83              0.0000000000
     11021        89  POPC      C14            41.3013242733       14.2900673273       21.3097359251  MEMB      83              0.0000000000
     11022        89  POPC      H14A           41.4095001803       15.3537481604       21.4435858462  MEMB      83              0.0000000000
     11023        89  POPC      H14B           41.2809796874       14.1055223871       20.2345673427  MEMB      83              0.0000000000
     11024        89  POPC      H14C           40.3413121010       13.9693263766       21.7088037435  MEMB      83              0.0000000000
     11025        89  POPC      C15            43.6227406292       13.5730643300       21.0532044756  MEMB      83              0.0000000000
     11026        89  POPC      H15A           44.0116172563       14.5844778116       20.9631650552  MEMB      83              0.0000000000
     11027        89  POPC      H15B           43.4357210381       13.2048164121       20.0466300232  MEMB      83              0.0000000000
     11028        89  POPC      H15C           44.4288111141       12.9683846081       21.4605461586  MEMB      83              0.0000000000
     11029        89  POPC      C11            43.6863517873       13.0629815514       24.1810889456  MEMB      83              0.0000000000
     11030        89  POPC      H11A           43.8431761317       13.5596878020       25.1694111454  MEMB      83              0.0000000000
     11031        89  POPC      H11B           44.6719006435       12.9676564184       23.6698551610  MEMB      83              0.0000000000
     11032        89  POPC      P              43.7663090943       10.6549420265       25.1976470030  MEMB      83              0.0000000000
     11033        89  POPC      O13            44.8318795338       11.2513263715       26.0335008584  MEMB      83              0.0000000000
     11034        89  POPC      O14            44.1094945755        9.6531157709       24.1627349497  MEMB      83              0.0000000000
     11035        89  POPC      O12            43.0887604815       11.8024568326       24.3817968098  MEMB      83              0.0000000000
     11036        89  POPC      O11            42.5164168350       10.2085972478       26.0837088922  MEMB      83              0.0000000000
     11037        89  POPC      C1             41.2342229518        9.8348419898       25.5685133117  MEMB      83              0.0000000000
     11038        89  POPC      HA             41.3096883488        9.5141121110       24.5029970152  MEMB      83              0.0000000000
     11039        89  POPC      HB             40.5514305678       10.7105379381       25.5987983007  MEMB      83              0.0000000000
     11040        89  POPC      C2             40.5354063933        8.6345854042       26.3322562178  MEMB      83              0.0000000000
     11041        89  POPC      HS             39.6538953550        8.3451641457       25.7163448556  MEMB      83              0.0000000000
     11042        89  POPC      O21            40.1112491701        9.0121739092       27.6770893676  MEMB      83              0.0000000000
     11043        89  POPC      C21            39.2487956423        8.1300935874       28.2279049895  MEMB      83              0.0000000000
     11044        89  POPC      O22            38.7170242676        7.2119148013       27.6383970504  MEMB      83              0.0000000000
     11045        89  POPC      C22            38.9597259956        8.5036505891       29.7038677968  MEMB      83              0.0000000000
     11046        89  POPC      H2R            37.8844813209        8.7535968249       29.7047082280  MEMB      83              0.0000000000
     11047        89  POPC      H2S            39.5174732394        9.4277341545       29.9376238315  MEMB      83              0.0000000000
     11048        89  POPC      C3             41.4953728691        7.4031232995       26.3893659578  MEMB      83              0.0000000000
     11049        89  POPC      HX             41.6860910226        7.1059571953       25.3355863298  MEMB      83              0.0000000000
     11050        89  POPC      HY             41.0084013452        6.5232265059       26.8686537877  MEMB      83              0.0000000000
     11051        89  POPC      O31            42.7565052097        7.7515006947       27.0022110086  MEMB      83              0.0000000000
     11052        89  POPC      C31            42.6738076750        7.8507955635       28.3181522468  MEMB      83              0.0000000000
     11053        89  POPC      O32            41.9042251271        7.2208764057       29.0243955283  MEMB      83              0.0000000000
     11054        89  POPC      C32            43.6808182904        8.8410305110       28.8919619473  MEMB      83              0.0000000000
     11055        89  POPC      H2X            44.1742759088        9.3703297834       28.0516297095  MEMB      83              0.0000000000
     11056        89  POPC      H2Y            44.4311747850        8.2430441766       29.4380587138  MEMB      83              0.0000000000
     11057        89  POPC      C23            39.2204668668        7.3981160246       30.7881526185  MEMB      83              0.0000000000
     11058        89  POPC      H3R            40.2632578838        7.0216723650       30.7225037562  MEMB      83              0.0000000000
     11059        89  POPC      H3S            38.5684404042        6.5266816623       30.5714471021  MEMB      83              0.0000000000
     11060        89  POPC      C24            38.9797452388        7.8758008351       32.2492623918  MEMB      83              0.0000000000
     11061        89  POPC      H4R            38.2006177133        8.6655195903       32.2261101727  MEMB      83              0.0000000000
     11062        89  POPC      H4S            39.9015869507        8.3694978184       32.6221343342  MEMB      83              0.0000000000
     11063        89  POPC      C25            38.5478224109        6.7732691813       33.2589109683  MEMB      83              0.0000000000
     11064        89  POPC      H5R            39.4455815957        6.3530945911       33.7552566767  MEMB      83              0.0000000000
     11065        89  POPC      H5S            38.0771246631        5.9533771286       32.6665075637  MEMB      83              0.0000000000
     11066        89  POPC      C26            37.5036539716        7.2179879537       34.3194640914  MEMB      83              0.0000000000
     11067        89  POPC      H6R            36.5863589360        6.6007837216       34.1943450700  MEMB      83              0.0000000000
     11068        89  POPC      H6S            37.2269270253        8.2656522189       34.0917136218  MEMB      83              0.0000000000
     11069        89  POPC      C27            37.8761211691        7.1700645890       35.8251196063  MEMB      83              0.0000000000
     11070        89  POPC      H7R            38.8805095331        7.6149114811       35.9473159869  MEMB      83              0.0000000000
     11071        89  POPC      H7S            37.9331743534        6.1133170085       36.1635376445  MEMB      83              0.0000000000
     11072        89  POPC      C28            36.8154001838        7.9403264727       36.6780822204  MEMB      83              0.0000000000
     11073        89  POPC      H8R            35.8656354901        7.3775075013       36.5242294866  MEMB      83              0.0000000000
     11074        89  POPC      H8S            36.6503662716        8.9179713644       36.1783937994  MEMB      83              0.0000000000
     11075        89  POPC      C29            36.9556468666        8.1677613101       38.1763988089  MEMB      83              0.0000000000
     11076        89  POPC      H91            36.8847910309        7.2427064388       38.7704151927  MEMB      83              0.0000000000
     11077        89  POPC      C210           37.1386993046        9.3408887023       38.8458088040  MEMB      83              0.0000000000
     11078        89  POPC      H101           37.2073762362        9.3060438142       39.9430511319  MEMB      83              0.0000000000
     11079        89  POPC      C211           37.2727476895       10.7478417909       38.2933189795  MEMB      83              0.0000000000
     11080        89  POPC      H11R           37.4774766687       10.6495641072       37.2077594885  MEMB      83              0.0000000000
     11081        89  POPC      H11S           38.1918716001       11.1926729985       38.7186771159  MEMB      83              0.0000000000
     11082        89  POPC      C212           36.2194036254       11.8888821338       38.3489088345  MEMB      83              0.0000000000
     11083        89  POPC      H12R           35.2130504521       11.5135132149       38.1023419579  MEMB      83              0.0000000000
     11084        89  POPC      H12S           36.5318033192       12.5604274690       37.5185117644  MEMB      83              0.0000000000
     11085        89  POPC      C213           36.1058671872       12.8284609165       39.5731588574  MEMB      83              0.0000000000
     11086        89  POPC      H13R           35.2791700507       12.4883398405       40.2271048623  MEMB      83              0.0000000000
     11087        89  POPC      H13S           35.7861064290       13.8080407205       39.1612818839  MEMB      83              0.0000000000
     11088        89  POPC      C214           37.3671372869       13.0395874499       40.4296932378  MEMB      83              0.0000000000
     11089        89  POPC      H14R           38.2128308108       13.3589588747       39.7819999783  MEMB      83              0.0000000000
     11090        89  POPC      H14S           37.5989576416       12.0502560970       40.8703100234  MEMB      83              0.0000000000
     11091        89  POPC      C215           37.1975973199       14.0474544884       41.5909928282  MEMB      83              0.0000000000
     11092        89  POPC      H15R           36.3971777357       13.6891168193       42.2709759925  MEMB      83              0.0000000000
     11093        89  POPC      H15S           36.8516100754       15.0068628075       41.1574720219  MEMB      83              0.0000000000
     11094        89  POPC      C216           38.4735430130       14.4080302271       42.3866056503  MEMB      83              0.0000000000
     11095        89  POPC      H16R           38.4108185837       15.4754090169       42.6779975968  MEMB      83              0.0000000000
     11096        89  POPC      H16S           39.3667387400       14.3403166042       41.7339713435  MEMB      83              0.0000000000
     11097        89  POPC      C217           38.6515078708       13.6595785954       43.7153995563  MEMB      83              0.0000000000
     11098        89  POPC      H17R           39.6755101624       13.8629622743       44.1089177923  MEMB      83              0.0000000000
     11099        89  POPC      H17S           38.5780446759       12.5628793696       43.5498938776  MEMB      83              0.0000000000
     11100        89  POPC      C218           37.6361428444       14.1175848324       44.7659711478  MEMB      83              0.0000000000
     11101        89  POPC      H18R           36.6001243823       13.9488361819       44.4107316681  MEMB      83              0.0000000000
     11102        89  POPC      H18S           37.7312327835       15.2026402062       44.9465219321  MEMB      83              0.0000000000
     11103        89  POPC      H18T           37.7744139127       13.5915633593       45.7318819809  MEMB      83              0.0000000000
     11104        89  POPC      C33            43.0249181336        9.8605133831       29.8688669240  MEMB      83              0.0000000000
     11105        89  POPC      H3X            42.2708016941       10.4808245277       29.3340141198  MEMB      83              0.0000000000
     11106        89  POPC      H3Y            43.8349213360       10.5480025205       30.2054217824  MEMB      83              0.0000000000
     11107        89  POPC      C34            42.3944384401        9.2022029870       31.1135357364  MEMB      83              0.0000000000
     11108        89  POPC      H4X            42.9043030904        8.2259707917       31.2733128360  MEMB      83              0.0000000000
     11109        89  POPC      H4Y            41.3361362944        8.9609601981       30.9129741683  MEMB      83              0.0000000000
     11110        89  POPC      C35            42.5020078220       10.0218231824       32.4058528178  MEMB      83              0.0000000000
     11111        89  POPC      H5X            41.6261573736       10.6883305762       32.5310011411  MEMB      83              0.0000000000
     11112        89  POPC      H5Y            43.3909853704       10.6809783254       32.3239855024  MEMB      83              0.0000000000
     11113        89  POPC      C36            42.6733805089        9.1472772301       33.6583371736  MEMB      83              0.0000000000
     11114        89  POPC      H6X            43.2166875676        8.2130685384       33.3902868979  MEMB      83              0.0000000000
     11115        89  POPC      H6Y            41.6761660776        8.8460151308       34.0466599238  MEMB      83              0.0000000000
     11116        89  POPC      C37            43.4796472504        9.8697110651       34.7434650067  MEMB      83              0.0000000000
     11117        89  POPC      H7X            42.9389165623       10.7666956616       35.0939075117  MEMB      83              0.0000000000
     11118        89  POPC      H7Y            44.4245763705       10.2464914680       34.3074801506  MEMB      83              0.0000000000
     11119        89  POPC      C38            43.8628725827        8.9767488825       35.9242234015  MEMB      83              0.0000000000
     11120        89  POPC      H8X            44.8594501065        8.5587222958       35.6752540857  MEMB      83              0.0000000000
     11121        89  POPC      H8Y            43.1298120088        8.1442913234       36.0213279710  MEMB      83              0.0000000000
     11122        89  POPC      C39            43.9076695742        9.7549696976       37.2428366849  MEMB      83              0.0000000000
     11123        89  POPC      H9X            42.8978299010       10.1921701194       37.3404625319  MEMB      83              0.0000000000
     11124        89  POPC      H9Y            44.6120879088       10.6099114138       37.1833314101  MEMB      83              0.0000000000
     11125        89  POPC      C310           44.1899202314        8.9313557493       38.5117913981  MEMB      83              0.0000000000
     11126        89  POPC      H10X           45.2807449061        8.7525281187       38.6055998986  MEMB      83              0.0000000000
     11127        89  POPC      H10Y           43.6851812348        7.9452521172       38.4449286796  MEMB      83              0.0000000000
     11128        89  POPC      C311           43.6690540189        9.6453757341       39.7685557930  MEMB      83              0.0000000000
     11129        89  POPC      H11X           42.6860552631        9.2384789911       40.0718988966  MEMB      83              0.0000000000
     11130        89  POPC      H11Y           43.5409232600       10.7171974633       39.5006883048  MEMB      83              0.0000000000
     11131        89  POPC      C312           44.5654536255        9.5936972224       40.9991056382  MEMB      83              0.0000000000
     11132        89  POPC      H12X           45.3888467710       10.2897210613       40.7683264429  MEMB      83              0.0000000000
     11133        89  POPC      H12Y           44.9592164477        8.5690899670       41.1586189110  MEMB      83              0.0000000000
     11134        89  POPC      C313           43.8722656396       10.1098544973       42.2698848033  MEMB      83              0.0000000000
     11135        89  POPC      H13X           43.0456981860        9.4150476636       42.5367016764  MEMB      83              0.0000000000
     11136        89  POPC      H13Y           43.4449716879       11.1019235894       42.0245505063  MEMB      83              0.0000000000
     11137        89  POPC      C314           44.8179028352       10.2366964859       43.4714000725  MEMB      83              0.0000000000
     11138        89  POPC      H14X           45.8427775824       10.3161281639       43.0541772758  MEMB      83              0.0000000000
     11139        89  POPC      H14Y           44.7927610267        9.2852832364       44.0411283930  MEMB      83              0.0000000000
     11140        89  POPC      C315           44.6642990840       11.4432091682       44.4423262671  MEMB      83              0.0000000000
     11141        89  POPC      H15X           45.4700373490       12.1503013856       44.1644632597  MEMB      83              0.0000000000
     11142        89  POPC      H15Y           44.9311364388       11.0753477787       45.4582301615  MEMB      83              0.0000000000
     11143        89  POPC      C316           43.3613975799       12.2666982952       44.5509749652  MEMB      83              0.0000000000
     11144        89  POPC      H16X           43.5956184909       13.2519890688       45.0068624085  MEMB      83              0.0000000000
     11145        89  POPC      H16Y           42.5959009924       11.8057776089       45.2009310771  MEMB      83              0.0000000000
     11146        89  POPC      H16Z           42.8953107008       12.4508009821       43.5644939645  MEMB      83              0.0000000000
     11147        90  POPC      N              27.0868156830        9.7445666154       21.3703463315  MEMB      84              0.0000000000
     11148        90  POPC      C12            28.4779581002       10.1295051194       21.8741034822  MEMB      84              0.0000000000
     11149        90  POPC      H12A           29.1590784648       10.1774665040       21.0330622662  MEMB      84              0.0000000000
     11150        90  POPC      H12B           28.8476402962        9.3590940674       22.5475079127  MEMB      84              0.0000000000
     11151        90  POPC      C13            27.1052604775        8.4633143123       20.6112848834  MEMB      84              0.0000000000
     11152        90  POPC      H13A           27.6631525818        7.6924666285       21.1289617181  MEMB      84              0.0000000000
     11153        90  POPC      H13B           26.0941656640        8.0626433939       20.5054152989  MEMB      84              0.0000000000
     11154        90  POPC      H13C           27.5051212750        8.6077733360       19.6153429200  MEMB      84              0.0000000000
     11155        90  POPC      C14            26.1260164895        9.6183227123       22.5157256789  MEMB      84              0.0000000000
     11156        90  POPC      H14A           25.1660345799        9.2282112484       22.2065776072  MEMB      84              0.0000000000
     11157        90  POPC      H14B           26.4956197870        8.9852593544       23.3137497086  MEMB      84              0.0000000000
     11158        90  POPC      H14C           26.0054769956       10.6029477901       22.9804418624  MEMB      84              0.0000000000
     11159        90  POPC      C15            26.5390563940       10.8295793767       20.4819473276  MEMB      84              0.0000000000
     11160        90  POPC      H15A           27.0721066810       10.9054627731       19.5373890654  MEMB      84              0.0000000000
     11161        90  POPC      H15B           26.6254488149       11.7812614760       20.9934519559  MEMB      84              0.0000000000
     11162        90  POPC      H15C           25.4870659188       10.6691414967       20.2640131968  MEMB      84              0.0000000000
     11163        90  POPC      C11            28.5961715601       11.4254467852       22.7176042740  MEMB      84              0.0000000000
     11164        90  POPC      H11A           28.1825729367       12.3026121314       22.1720393428  MEMB      84              0.0000000000
     11165        90  POPC      H11B           29.6782655168       11.6463893609       22.9006153954  MEMB      84              0.0000000000
     11166        90  POPC      P              28.4232724567       11.6690861610       25.3572325161  MEMB      84              0.0000000000
     11167        90  POPC      O13            27.2875883206       11.8356503156       26.2953943430  MEMB      84              0.0000000000
     11168        90  POPC      O14            29.4163886327       12.7569036534       25.2347160376  MEMB      84              0.0000000000
     11169        90  POPC      O12            27.8835649311       11.2339280447       23.9320060352  MEMB      84              0.0000000000
     11170        90  POPC      O11            29.1389121058       10.3352808672       25.7949385485  MEMB      84              0.0000000000
     11171        90  POPC      C1             28.6360945618        9.0438302538       25.4139748663  MEMB      84              0.0000000000
     11172        90  POPC      HA             29.1371098660        8.7243709046       24.4755885460  MEMB      84              0.0000000000
     11173        90  POPC      HB             27.5445020582        9.0701634899       25.2060357174  MEMB      84              0.0000000000
     11174        90  POPC      C2             28.9215865644        7.9202999719       26.4790958088  MEMB      84              0.0000000000
     11175        90  POPC      HS             28.4565253696        6.9737559345       26.1164448949  MEMB      84              0.0000000000
     11176        90  POPC      O21            28.4198428916        8.2382104263       27.7982360397  MEMB      84              0.0000000000
     11177        90  POPC      C21            27.1153430065        8.4169750154       27.8615910050  MEMB      84              0.0000000000
     11178        90  POPC      O22            26.3192193623        8.1901437911       26.9712422255  MEMB      84              0.0000000000
     11179        90  POPC      C22            26.7078050994        8.7722113871       29.2802305589  MEMB      84              0.0000000000
     11180        90  POPC      H2R            27.3018795833        8.1669334250       29.9858229734  MEMB      84              0.0000000000
     11181        90  POPC      H2S            25.6476317355        8.4539032321       29.3864142492  MEMB      84              0.0000000000
     11182        90  POPC      C3             30.4470224186        7.6665927708       26.5852918158  MEMB      84              0.0000000000
     11183        90  POPC      HX             30.7992716044        7.2307796929       25.6268612417  MEMB      84              0.0000000000
     11184        90  POPC      HY             30.6451198980        6.9125822428       27.3863312061  MEMB      84              0.0000000000
     11185        90  POPC      O31            31.0995580417        8.9350096543       26.7894515088  MEMB      84              0.0000000000
     11186        90  POPC      C31            31.3940752319        9.2157078093       28.0316135418  MEMB      84              0.0000000000
     11187        90  POPC      O32            32.0598447588        8.4977884569       28.7545488531  MEMB      84              0.0000000000
     11188        90  POPC      C32            30.8332099472       10.5780593770       28.4685983765  MEMB      84              0.0000000000
     11189        90  POPC      H2X            29.7361289495       10.4764288600       28.5690022400  MEMB      84              0.0000000000
     11190        90  POPC      H2Y            31.0104521450       11.2580006940       27.6247510250  MEMB      84              0.0000000000
     11191        90  POPC      C23            26.8032650365       10.2795201344       29.5751363092  MEMB      84              0.0000000000
     11192        90  POPC      H3R            26.7749775084       10.8682014596       28.6261850866  MEMB      84              0.0000000000
     11193        90  POPC      H3S            27.7698278495       10.5161094830       30.0651765783  MEMB      84              0.0000000000
     11194        90  POPC      C24            25.6159566337       10.7329637729       30.4298585078  MEMB      84              0.0000000000
     11195        90  POPC      H4R            25.5731778775       10.1541499532       31.3740624874  MEMB      84              0.0000000000
     11196        90  POPC      H4S            24.6826227172       10.5103297190       29.8590080958  MEMB      84              0.0000000000
     11197        90  POPC      C25            25.6524225100       12.2294711074       30.7415693806  MEMB      84              0.0000000000
     11198        90  POPC      H5R            24.6590570004       12.5458408048       31.1283673423  MEMB      84              0.0000000000
     11199        90  POPC      H5S            25.8361071148       12.7707200199       29.7842289921  MEMB      84              0.0000000000
     11200        90  POPC      C26            26.7247727007       12.6127214709       31.7639681686  MEMB      84              0.0000000000
     11201        90  POPC      H6R            27.7142219678       12.2422651419       31.4232862099  MEMB      84              0.0000000000
     11202        90  POPC      H6S            26.4972295947       12.1293021501       32.7379469012  MEMB      84              0.0000000000
     11203        90  POPC      C27            26.7889663637       14.1343746638       31.9231332642  MEMB      84              0.0000000000
     11204        90  POPC      H7R            25.8205366457       14.4679576212       32.3549913624  MEMB      84              0.0000000000
     11205        90  POPC      H7S            26.8906834167       14.5627556666       30.8979989170  MEMB      84              0.0000000000
     11206        90  POPC      C28            27.9559186798       14.6752572356       32.7671173615  MEMB      84              0.0000000000
     11207        90  POPC      H8R            27.9995665725       15.7788264032       32.6286015677  MEMB      84              0.0000000000
     11208        90  POPC      H8S            28.9091657421       14.2760329296       32.3516539671  MEMB      84              0.0000000000
     11209        90  POPC      C29            27.8161343900       14.3769812509       34.2363734807  MEMB      84              0.0000000000
     11210        90  POPC      H91            27.2609032968       15.1231311027       34.8273256973  MEMB      84              0.0000000000
     11211        90  POPC      C210           28.2941470331       13.2859909040       34.8534335810  MEMB      84              0.0000000000
     11212        90  POPC      H101           28.1726727482       13.1953082438       35.9439963680  MEMB      84              0.0000000000
     11213        90  POPC      C211           29.0532618165       12.1625722254       34.1958622053  MEMB      84              0.0000000000
     11214        90  POPC      H11R           29.1713180857       12.3227199085       33.1032324516  MEMB      84              0.0000000000
     11215        90  POPC      H11S           28.4922785760       11.2070220286       34.3062942750  MEMB      84              0.0000000000
     11216        90  POPC      C212           30.4602175507       11.9535446316       34.7662413245  MEMB      84              0.0000000000
     11217        90  POPC      H12R           30.9912611866       11.2600784121       34.0765030394  MEMB      84              0.0000000000
     11218        90  POPC      H12S           30.4022423516       11.4135689142       35.7314784360  MEMB      84              0.0000000000
     11219        90  POPC      C213           31.3308477679       13.2209984258       34.8588091219  MEMB      84              0.0000000000
     11220        90  POPC      H13R           31.1790891233       13.8098707045       33.9301360475  MEMB      84              0.0000000000
     11221        90  POPC      H13S           32.3929765379       12.8980625930       34.8517279063  MEMB      84              0.0000000000
     11222        90  POPC      C214           31.1137854431       14.1376127572       36.0812088211  MEMB      84              0.0000000000
     11223        90  POPC      H14R           30.2251516961       14.7763829973       35.8831160742  MEMB      84              0.0000000000
     11224        90  POPC      H14S           31.9742321305       14.8365086813       36.1829569033  MEMB      84              0.0000000000
     11225        90  POPC      C215           30.9017366128       13.4185245989       37.4205106376  MEMB      84              0.0000000000
     11226        90  POPC      H15R           31.8558886498       12.9599777662       37.7608451027  MEMB      84              0.0000000000
     11227        90  POPC      H15S           30.1441771591       12.6129674342       37.3177888588  MEMB      84              0.0000000000
     11228        90  POPC      C216           30.3519978232       14.3680530294       38.4853129003  MEMB      84              0.0000000000
     11229        90  POPC      H16R           29.4345902749       14.8553180703       38.0786574684  MEMB      84              0.0000000000
     11230        90  POPC      H16S           31.1119431491       15.1532128102       38.6932227931  MEMB      84              0.0000000000
     11231        90  POPC      C217           29.9761898357       13.6541190567       39.7836520294  MEMB      84              0.0000000000
     11232        90  POPC      H17R           30.8990876067       13.1796839069       40.1806216310  MEMB      84              0.0000000000
     11233        90  POPC      H17S           29.2510725726       12.8407732724       39.5499007975  MEMB      84              0.0000000000
     11234        90  POPC      C218           29.3662341430       14.5796078030       40.8406450408  MEMB      84              0.0000000000
     11235        90  POPC      H18R           29.1919670125       14.0319925929       41.7914734534  MEMB      84              0.0000000000
     11236        90  POPC      H18S           28.3950145562       14.9893281841       40.4960992461  MEMB      84              0.0000000000
     11237        90  POPC      H18T           30.0420314387       15.4379714596       41.0429866259  MEMB      84              0.0000000000
     11238        90  POPC      C33            31.4587653015       11.1969684260       29.7531252088  MEMB      84              0.0000000000
     11239        90  POPC      H3X            31.3590131043       12.3028384703       29.6773061384  MEMB      84              0.0000000000
     11240        90  POPC      H3Y            32.5434103047       10.9690956612       29.8311378724  MEMB      84              0.0000000000
     11241        90  POPC      C34            30.7691955369       10.7744330489       31.0569305253  MEMB      84              0.0000000000
     11242        90  POPC      H4X            29.6922541197       11.0452023356       31.0132320969  MEMB      84              0.0000000000
     11243        90  POPC      H4Y            31.2194993783       11.3355385491       31.9039753064  MEMB      84              0.0000000000
     11244        90  POPC      C35            30.9291594480        9.2753903002       31.2988904978  MEMB      84              0.0000000000
     11245        90  POPC      H5X            32.0078171677        9.0269747993       31.3237435883  MEMB      84              0.0000000000
     11246        90  POPC      H5Y            30.4749447790        8.7411148325       30.4376086112  MEMB      84              0.0000000000
     11247        90  POPC      C36            30.2303793843        8.7187917447       32.5280813611  MEMB      84              0.0000000000
     11248        90  POPC      H6X            30.2237857243        9.4651054063       33.3476029552  MEMB      84              0.0000000000
     11249        90  POPC      H6Y            30.7681542137        7.8109577881       32.8866192357  MEMB      84              0.0000000000
     11250        90  POPC      C37            28.8063983112        8.3283154756       32.1542586561  MEMB      84              0.0000000000
     11251        90  POPC      H7X            28.7842030120        7.5056720744       31.4134559247  MEMB      84              0.0000000000
     11252        90  POPC      H7Y            28.3489594968        9.2120794117       31.6569797037  MEMB      84              0.0000000000
     11253        90  POPC      C38            27.9874913442        7.9503449919       33.3684659821  MEMB      84              0.0000000000
     11254        90  POPC      H8X            28.6120329370        8.1568212238       34.2698650925  MEMB      84              0.0000000000
     11255        90  POPC      H8Y            27.7317778552        6.8693438156       33.3886518007  MEMB      84              0.0000000000
     11256        90  POPC      C39            26.7396123309        8.8154311350       33.4388316710  MEMB      84              0.0000000000
     11257        90  POPC      H9X            25.9406788524        8.4290155087       32.7685663824  MEMB      84              0.0000000000
     11258        90  POPC      H9Y            26.9926706143        9.8536514804       33.1160167241  MEMB      84              0.0000000000
     11259        90  POPC      C310           26.2765528556        8.9056741765       34.8769690969  MEMB      84              0.0000000000
     11260        90  POPC      H10X           27.1605909281        9.1548041852       35.4938040109  MEMB      84              0.0000000000
     11261        90  POPC      H10Y           25.9667262811        7.8963866597       35.2186344922  MEMB      84              0.0000000000
     11262        90  POPC      C311           25.1521908750        9.9298813472       35.0566753678  MEMB      84              0.0000000000
     11263        90  POPC      H11X           24.4181381547        9.4984424930       35.7592524548  MEMB      84              0.0000000000
     11264        90  POPC      H11Y           24.6213832632       10.0889591855       34.0929247872  MEMB      84              0.0000000000
     11265        90  POPC      C312           25.5832053550       11.2782206138       35.6487743043  MEMB      84              0.0000000000
     11266        90  POPC      H12X           24.6692163256       11.7983225516       35.9936116690  MEMB      84              0.0000000000
     11267        90  POPC      H12Y           26.0249216146       11.8979206603       34.8425270757  MEMB      84              0.0000000000
     11268        90  POPC      C313           26.5815874566       11.1787811010       36.8121839705  MEMB      84              0.0000000000
     11269        90  POPC      H13X           26.7578410364       12.1684165247       37.2707497169  MEMB      84              0.0000000000
     11270        90  POPC      H13Y           27.5654970265       10.9069495086       36.3838129442  MEMB      84              0.0000000000
     11271        90  POPC      C314           26.1874721490       10.1921484652       37.9179277977  MEMB      84              0.0000000000
     11272        90  POPC      H14X           25.8712868197        9.2132487545       37.4993183553  MEMB      84              0.0000000000
     11273        90  POPC      H14Y           25.3183535139       10.6104115824       38.4703122238  MEMB      84              0.0000000000
     11274        90  POPC      C315           27.3499522090        9.9429250647       38.8823321277  MEMB      84              0.0000000000
     11275        90  POPC      H15X           26.9534712531        9.3601914260       39.7435256995  MEMB      84              0.0000000000
     11276        90  POPC      H15Y           27.6869254395       10.9304455696       39.2732362338  MEMB      84              0.0000000000
     11277        90  POPC      C316           28.5513178114        9.2023372761       38.2699582147  MEMB      84              0.0000000000
     11278        90  POPC      H16X           29.4905395426        9.5080020741       38.7806469520  MEMB      84              0.0000000000
     11279        90  POPC      H16Y           28.6817410193        9.4289279007       37.1935552465  MEMB      84              0.0000000000
     11280        90  POPC      H16Z           28.4324127201        8.1021152337       38.3746389757  MEMB      84              0.0000000000
     11281        91  POPC      N              49.1868768967       18.6600292172       22.1156546190  MEMB      85              0.0000000000
     11282        91  POPC      C12            48.5129542851       18.5285101435       23.4695378018  MEMB      85              0.0000000000
     11283        91  POPC      H12A           47.7273581194       17.7868907787       23.3659173455  MEMB      85              0.0000000000
     11284        91  POPC      H12B           48.0341055200       19.4610955345       23.7240327535  MEMB      85              0.0000000000
     11285        91  POPC      C13            50.5869200318       19.1267629639       22.3184777725  MEMB      85              0.0000000000
     11286        91  POPC      H13A           51.1282608802       19.1936452956       21.3825809224  MEMB      85              0.0000000000
     11287        91  POPC      H13B           50.6183964284       20.0911773351       22.8260456338  MEMB      85              0.0000000000
     11288        91  POPC      H13C           51.0718408138       18.4154411308       22.9793368791  MEMB      85              0.0000000000
     11289        91  POPC      C14            49.1485887773       17.3191493961       21.4507251750  MEMB      85              0.0000000000
     11290        91  POPC      H14A           48.2276642928       17.2034862802       20.8822872630  MEMB      85              0.0000000000
     11291        91  POPC      H14B           49.9593591198       17.2110056582       20.7553044740  MEMB      85              0.0000000000
     11292        91  POPC      H14C           49.2013368195       16.5254007012       22.1975596288  MEMB      85              0.0000000000
     11293        91  POPC      C15            48.5132618808       19.6096433963       21.2024892566  MEMB      85              0.0000000000
     11294        91  POPC      H15A           47.5181397539       19.2794824183       20.9200553282  MEMB      85              0.0000000000
     11295        91  POPC      H15B           49.0804344428       19.6930229319       20.2795684986  MEMB      85              0.0000000000
     11296        91  POPC      H15C           48.4565744081       20.6124742300       21.6175937209  MEMB      85              0.0000000000
     11297        91  POPC      C11            49.4117904126       18.0855438809       24.6699999260  MEMB      85              0.0000000000
     11298        91  POPC      H11A           48.7799540297       18.0219558740       25.5908174858  MEMB      85              0.0000000000
     11299        91  POPC      H11B           50.1550969273       18.8853874919       24.8858278590  MEMB      85              0.0000000000
     11300        91  POPC      P              49.3151098826       15.4986604518       24.6545038958  MEMB      85              0.0000000000
     11301        91  POPC      O13            50.1986705812       14.3690035098       24.3094335721  MEMB      85              0.0000000000
     11302        91  POPC      O14            48.0374782051       15.6456548046       23.8937230408  MEMB      85              0.0000000000
     11303        91  POPC      O12            50.1180909414       16.8592603959       24.4167499191  MEMB      85              0.0000000000
     11304        91  POPC      O11            49.0504652618       15.5151353919       26.2202014446  MEMB      85              0.0000000000
     11305        91  POPC      C1             47.9426828430       14.8132721018       26.7879305101  MEMB      85              0.0000000000
     11306        91  POPC      HA             48.2959186342       14.2416694584       27.6726112170  MEMB      85              0.0000000000
     11307        91  POPC      HB             47.4907244006       14.0683530129       26.0890498309  MEMB      85              0.0000000000
     11308        91  POPC      C2             46.8521763037       15.7983688110       27.2782070771  MEMB      85              0.0000000000
     11309        91  POPC      HS             46.4429047987       16.2949173517       26.3664978966  MEMB      85              0.0000000000
     11310        91  POPC      O21            47.4596105077       16.7615375849       28.1582724534  MEMB      85              0.0000000000
     11311        91  POPC      C21            46.7608477935       17.8569923275       28.3410830138  MEMB      85              0.0000000000
     11312        91  POPC      O22            45.7528051097       18.1709416273       27.7294999849  MEMB      85              0.0000000000
     11313        91  POPC      C22            47.4541726825       18.6981776423       29.4071593252  MEMB      85              0.0000000000
     11314        91  POPC      H2R            48.0038956911       19.5118949022       28.8922271662  MEMB      85              0.0000000000
     11315        91  POPC      H2S            48.1866050903       18.0664257262       29.9529694887  MEMB      85              0.0000000000
     11316        91  POPC      C3             45.7044269678       15.0664769320       28.0207103577  MEMB      85              0.0000000000
     11317        91  POPC      HX             45.2677585189       14.3018488114       27.3399481260  MEMB      85              0.0000000000
     11318        91  POPC      HY             44.9065191801       15.8141806533       28.2443725555  MEMB      85              0.0000000000
     11319        91  POPC      O31            46.2332132761       14.4105034230       29.1929482140  MEMB      85              0.0000000000
     11320        91  POPC      C31            45.5560774091       14.5620080472       30.3127511156  MEMB      85              0.0000000000
     11321        91  POPC      O32            44.5247709392       15.1893356711       30.4643736159  MEMB      85              0.0000000000
     11322        91  POPC      C32            46.2455557238       13.7755429280       31.4217428552  MEMB      85              0.0000000000
     11323        91  POPC      H2X            47.1411054923       13.2732267988       31.0096913169  MEMB      85              0.0000000000
     11324        91  POPC      H2Y            45.5243267973       12.9963627485       31.7448894171  MEMB      85              0.0000000000
     11325        91  POPC      C23            46.4405719698       19.2730002255       30.4036148492  MEMB      85              0.0000000000
     11326        91  POPC      H3R            45.9234230604       18.4473772639       30.9431513157  MEMB      85              0.0000000000
     11327        91  POPC      H3S            45.6618370912       19.8534634542       29.8546113132  MEMB      85              0.0000000000
     11328        91  POPC      C24            47.1218466650       20.2017863300       31.4085858830  MEMB      85              0.0000000000
     11329        91  POPC      H4R            47.5735501057       21.0284841430       30.8165422603  MEMB      85              0.0000000000
     11330        91  POPC      H4S            47.9362941735       19.6909807192       31.9585619619  MEMB      85              0.0000000000
     11331        91  POPC      C25            46.1133286502       20.7962695682       32.3817680238  MEMB      85              0.0000000000
     11332        91  POPC      H5R            45.2006797691       21.0038476941       31.7948947585  MEMB      85              0.0000000000
     11333        91  POPC      H5S            46.4737469983       21.7404352380       32.8361674437  MEMB      85              0.0000000000
     11334        91  POPC      C26            45.5702265144       19.8707190043       33.4398548931  MEMB      85              0.0000000000
     11335        91  POPC      H6R            45.4439122473       18.8400689629       33.0413141008  MEMB      85              0.0000000000
     11336        91  POPC      H6S            44.5491733956       20.2595100166       33.6897383333  MEMB      85              0.0000000000
     11337        91  POPC      C27            46.3691469697       19.8824595107       34.7318540698  MEMB      85              0.0000000000
     11338        91  POPC      H7R            46.8073843701       20.8912450141       34.9101220932  MEMB      85              0.0000000000
     11339        91  POPC      H7S            47.2127932517       19.1577137455       34.6666781858  MEMB      85              0.0000000000
     11340        91  POPC      C28            45.4385478807       19.5414914211       35.8925855541  MEMB      85              0.0000000000
     11341        91  POPC      H8R            44.7019505876       20.3610838880       36.0500381727  MEMB      85              0.0000000000
     11342        91  POPC      H8S            46.0910140452       19.4808271723       36.7841478519  MEMB      85              0.0000000000
     11343        91  POPC      C29            44.7304630044       18.2498968653       35.5921557506  MEMB      85              0.0000000000
     11344        91  POPC      H91            44.1100815636       18.2193204846       34.6839702537  MEMB      85              0.0000000000
     11345        91  POPC      C210           44.7893306760       17.1603245933       36.3446749002  MEMB      85              0.0000000000
     11346        91  POPC      H101           44.2858085250       16.2435637812       36.0004828870  MEMB      85              0.0000000000
     11347        91  POPC      C211           45.5627721154       17.0438234089       37.6183696336  MEMB      85              0.0000000000
     11348        91  POPC      H11R           44.9160153761       16.5467407391       38.3535794858  MEMB      85              0.0000000000
     11349        91  POPC      H11S           45.8413779065       18.0141733348       38.0781842890  MEMB      85              0.0000000000
     11350        91  POPC      C212           46.8001174718       16.1844977137       37.3959559237  MEMB      85              0.0000000000
     11351        91  POPC      H12R           47.3810134108       16.1420064020       38.3455974110  MEMB      85              0.0000000000
     11352        91  POPC      H12S           47.4683471580       16.6518622796       36.6416742511  MEMB      85              0.0000000000
     11353        91  POPC      C213           46.4121604324       14.7598311913       36.9730939094  MEMB      85              0.0000000000
     11354        91  POPC      H13R           47.3598419866       14.1977461078       36.9148282071  MEMB      85              0.0000000000
     11355        91  POPC      H13S           45.9938073384       14.7591433360       35.9431919454  MEMB      85              0.0000000000
     11356        91  POPC      C214           45.3880370996       14.0922049867       37.9171649846  MEMB      85              0.0000000000
     11357        91  POPC      H14R           45.3240411607       13.0048567586       37.6867868380  MEMB      85              0.0000000000
     11358        91  POPC      H14S           44.3763639108       14.5234742014       37.7501683518  MEMB      85              0.0000000000
     11359        91  POPC      C215           45.7304924146       14.2703856577       39.4028599496  MEMB      85              0.0000000000
     11360        91  POPC      H15R           45.9987541384       15.3063812404       39.6794731169  MEMB      85              0.0000000000
     11361        91  POPC      H15S           46.6339651417       13.6874355280       39.5495237051  MEMB      85              0.0000000000
     11362        91  POPC      C216           44.6327992848       13.8225297020       40.3597395249  MEMB      85              0.0000000000
     11363        91  POPC      H16R           44.0792002203       12.9737927834       39.9010178941  MEMB      85              0.0000000000
     11364        91  POPC      H16S           43.9150155375       14.6631478173       40.4913497896  MEMB      85              0.0000000000
     11365        91  POPC      C217           45.1454977455       13.3521392860       41.7282905516  MEMB      85              0.0000000000
     11366        91  POPC      H17R           45.5222194626       12.3118242676       41.6196217520  MEMB      85              0.0000000000
     11367        91  POPC      H17S           44.2559026920       13.3250686628       42.3833522601  MEMB      85              0.0000000000
     11368        91  POPC      C218           46.2282370533       14.1761523945       42.4250177451  MEMB      85              0.0000000000
     11369        91  POPC      H18R           45.9300068354       15.2405721010       42.4814442512  MEMB      85              0.0000000000
     11370        91  POPC      H18S           47.1973781103       14.0756729929       41.8929642991  MEMB      85              0.0000000000
     11371        91  POPC      H18T           46.3912447612       13.8241498955       43.4614638440  MEMB      85              0.0000000000
     11372        91  POPC      C33            46.6278404616       14.6394719572       32.6434885632  MEMB      85              0.0000000000
     11373        91  POPC      H3X            47.0850514354       13.9542620690       33.3961019165  MEMB      85              0.0000000000
     11374        91  POPC      H3Y            45.7246097116       15.0870522354       33.1159119115  MEMB      85              0.0000000000
     11375        91  POPC      C34            47.6504026102       15.7477092155       32.3424677066  MEMB      85              0.0000000000
     11376        91  POPC      H4X            47.1109409121       16.6533795781       31.9814705273  MEMB      85              0.0000000000
     11377        91  POPC      H4Y            48.3424457759       15.4226501201       31.5334394975  MEMB      85              0.0000000000
     11378        91  POPC      C35            48.4729061257       16.1014027047       33.5946083653  MEMB      85              0.0000000000
     11379        91  POPC      H5X            49.0576069624       15.2086893145       33.9054683258  MEMB      85              0.0000000000
     11380        91  POPC      H5Y            47.7615195510       16.3489485444       34.4148133220  MEMB      85              0.0000000000
     11381        91  POPC      C36            49.4263119337       17.2895731431       33.4034663592  MEMB      85              0.0000000000
     11382        91  POPC      H6X            48.8055116662       18.1528142361       33.0782885010  MEMB      85              0.0000000000
     11383        91  POPC      H6Y            50.1590059347       17.0751576954       32.5957979807  MEMB      85              0.0000000000
     11384        91  POPC      C37            50.1681135865       17.7096437627       34.6898431123  MEMB      85              0.0000000000
     11385        91  POPC      H7X            49.4470541940       17.7367093775       35.5362363427  MEMB      85              0.0000000000
     11386        91  POPC      H7Y            50.5414731728       18.7493131979       34.5424398016  MEMB      85              0.0000000000
     11387        91  POPC      C38            51.3775191417       16.8301493500       35.0600289887  MEMB      85              0.0000000000
     11388        91  POPC      H8X            52.1046719887       16.8899445181       34.2167042082  MEMB      85              0.0000000000
     11389        91  POPC      H8Y            51.0739791377       15.7672569653       35.1657000039  MEMB      85              0.0000000000
     11390        91  POPC      C39            52.0923001547       17.2989252887       36.3440232174  MEMB      85              0.0000000000
     11391        91  POPC      H9X            52.0837726273       18.4115298347       36.3587962056  MEMB      85              0.0000000000
     11392        91  POPC      H9Y            53.1580418288       16.9777571450       36.3094000898  MEMB      85              0.0000000000
     11393        91  POPC      C310           51.4822216316       16.7646519532       37.6547071586  MEMB      85              0.0000000000
     11394        91  POPC      H10X           51.7055788898       15.6802954046       37.7539185260  MEMB      85              0.0000000000
     11395        91  POPC      H10Y           50.3773695643       16.8830277140       37.5995322281  MEMB      85              0.0000000000
     11396        91  POPC      C311           52.0060642568       17.5172778327       38.8931210938  MEMB      85              0.0000000000
     11397        91  POPC      H11X           51.6870884393       18.5752022947       38.7806169791  MEMB      85              0.0000000000
     11398        91  POPC      H11Y           53.1166199723       17.4759544098       38.9281711499  MEMB      85              0.0000000000
     11399        91  POPC      C312           51.4188420939       17.0974008196       40.2468526025  MEMB      85              0.0000000000
     11400        91  POPC      H12X           51.8269524821       17.7811240898       41.0288327867  MEMB      85              0.0000000000
     11401        91  POPC      H12Y           51.7229910724       16.0620141954       40.5070911076  MEMB      85              0.0000000000
     11402        91  POPC      C313           49.8956188066       17.2205422803       40.2365328281  MEMB      85              0.0000000000
     11403        91  POPC      H13X           49.4882655520       16.3424063707       39.6842922218  MEMB      85              0.0000000000
     11404        91  POPC      H13Y           49.6042690340       18.1378109196       39.6747725866  MEMB      85              0.0000000000
     11405        91  POPC      C314           49.2610207242       17.2818358068       41.6266748448  MEMB      85              0.0000000000
     11406        91  POPC      H14X           49.3907917470       18.2892797072       42.0730226774  MEMB      85              0.0000000000
     11407        91  POPC      H14Y           49.7740845402       16.5521089222       42.2945360474  MEMB      85              0.0000000000
     11408        91  POPC      C315           47.7779884788       16.9156157442       41.5518736246  MEMB      85              0.0000000000
     11409        91  POPC      H15X           47.3732570313       16.8080290969       42.5800464630  MEMB      85              0.0000000000
     11410        91  POPC      H15Y           47.7358795685       15.9206640865       41.0541817795  MEMB      85              0.0000000000
     11411        91  POPC      C316           46.8732057947       17.8691635620       40.7681663545  MEMB      85              0.0000000000
     11412        91  POPC      H16X           46.5245904324       18.7009670576       41.4091414833  MEMB      85              0.0000000000
     11413        91  POPC      H16Y           45.9682205920       17.3320054624       40.4179008185  MEMB      85              0.0000000000
     11414        91  POPC      H16Z           47.3904654458       18.2885939496       39.8804370505  MEMB      85              0.0000000000
     11415        92  POPS      N              42.9550490142       52.6983981858       23.3265163029  MEMB      86              0.0000000000
     11416        92  POPS      HN1            42.9806180848       53.4963467134       23.9840704696  MEMB      86              0.0000000000
     11417        92  POPS      HN2            42.1400682484       52.7889214870       22.6900063840  MEMB      86              0.0000000000
     11418        92  POPS      HN3            42.8814448584       51.8305170503       23.9358382250  MEMB      86              0.0000000000
     11419        92  POPS      C12            44.2148912782       52.6013660702       22.5117250268  MEMB      86              0.0000000000
     11420        92  POPS      H12A           44.9319897621       53.2879888731       22.9340330725  MEMB      86              0.0000000000
     11421        92  POPS      C13            44.0354002867       52.9794746153       21.0294597085  MEMB      86              0.0000000000
     11422        92  POPS      O13A           42.8875489732       53.2538204488       20.5945602545  MEMB      86              0.0000000000
     11423        92  POPS      O13B           45.0812662042       52.9774913592       20.3179082262  MEMB      86              0.0000000000
     11424        92  POPS      C11            44.8083229789       51.1555950821       22.5188622635  MEMB      86              0.0000000000
     11425        92  POPS      H11A           45.6037868577       51.1107262675       21.7403999802  MEMB      86              0.0000000000
     11426        92  POPS      H11B           44.0254958738       50.4247397850       22.1945718576  MEMB      86              0.0000000000
     11427        92  POPS      P              44.5420210283       50.0972220946       24.8741840505  MEMB      86              0.0000000000
     11428        92  POPS      O13            44.1674089136       48.7626117674       24.3675254426  MEMB      86              0.0000000000
     11429        92  POPS      O14            43.4438639802       51.0241557280       25.2138179340  MEMB      86              0.0000000000
     11430        92  POPS      O12            45.4257572365       50.8112926840       23.7636964220  MEMB      86              0.0000000000
     11431        92  POPS      O11            45.5598371327       49.9867110380       26.0966543601  MEMB      86              0.0000000000
     11432        92  POPS      C1             45.6195515563       51.1149396072       26.9960209379  MEMB      86              0.0000000000
     11433        92  POPS      HA             44.6424122270       51.2668355740       27.5088851410  MEMB      86              0.0000000000
     11434        92  POPS      HB             45.8489956222       52.0372503331       26.4115266094  MEMB      86              0.0000000000
     11435        92  POPS      C2             46.7310197763       51.0496935274       28.1161892644  MEMB      86              0.0000000000
     11436        92  POPS      HS             47.5453563434       50.4201938182       27.7400900835  MEMB      86              0.0000000000
     11437        92  POPS      O21            46.2362755304       50.3998756735       29.2822358276  MEMB      86              0.0000000000
     11438        92  POPS      C21            46.9855683359       50.1937818880       30.3488780514  MEMB      86              0.0000000000
     11439        92  POPS      O22            47.9147998618       50.8471827562       30.7714640668  MEMB      86              0.0000000000
     11440        92  POPS      C22            46.4994955935       48.8941668972       30.9520978027  MEMB      86              0.0000000000
     11441        92  POPS      H2R            46.8979051118       48.8071792324       31.9830446306  MEMB      86              0.0000000000
     11442        92  POPS      H2S            46.8922804373       48.0808220445       30.3157232929  MEMB      86              0.0000000000
     11443        92  POPS      C3             47.1999975025       52.5021729230       28.4141997073  MEMB      86              0.0000000000
     11444        92  POPS      HX             47.7142876518       52.9010523887       27.5150071692  MEMB      86              0.0000000000
     11445        92  POPS      HY             47.9429592976       52.5738400891       29.2382408361  MEMB      86              0.0000000000
     11446        92  POPS      O31            46.0129211006       53.2797106395       28.6354295446  MEMB      86              0.0000000000
     11447        92  POPS      C31            45.5986674257       53.2150657829       29.8847501029  MEMB      86              0.0000000000
     11448        92  POPS      O32            46.2832858492       53.3876696083       30.8800229425  MEMB      86              0.0000000000
     11449        92  POPS      C32            44.1369340728       52.7666662632       29.8817636388  MEMB      86              0.0000000000
     11450        92  POPS      H2X            44.1324670321       51.6575545067       29.8370712357  MEMB      86              0.0000000000
     11451        92  POPS      H2Y            43.6581179119       53.1537666309       28.9568400682  MEMB      86              0.0000000000
     11452        92  POPS      C23            44.9680517509       48.8551677125       30.9234554452  MEMB      86              0.0000000000
     11453        92  POPS      H3R            44.5461305575       49.0809721130       29.9157834925  MEMB      86              0.0000000000
     11454        92  POPS      H3S            44.6188548570       49.6430612377       31.6152127853  MEMB      86              0.0000000000
     11455        92  POPS      C24            44.4118399322       47.5060052648       31.3083517280  MEMB      86              0.0000000000
     11456        92  POPS      H4R            44.9701779287       47.0742550444       32.1549829324  MEMB      86              0.0000000000
     11457        92  POPS      H4S            44.5424400056       46.7904410595       30.4622471317  MEMB      86              0.0000000000
     11458        92  POPS      C25            42.9337060650       47.5921070089       31.6692778103  MEMB      86              0.0000000000
     11459        92  POPS      H5R            42.7241893515       46.6143184700       32.1467311777  MEMB      86              0.0000000000
     11460        92  POPS      H5S            42.3757864666       47.6993319578       30.7082911450  MEMB      86              0.0000000000
     11461        92  POPS      C26            42.4042831624       48.6809751162       32.6213547670  MEMB      86              0.0000000000
     11462        92  POPS      H6R            41.2918257741       48.6687778021       32.5919490029  MEMB      86              0.0000000000
     11463        92  POPS      H6S            42.6707107719       49.6832596258       32.2560455378  MEMB      86              0.0000000000
     11464        92  POPS      C27            42.8043795629       48.5013880142       34.0847712761  MEMB      86              0.0000000000
     11465        92  POPS      H7R            42.4811182277       47.4991672161       34.4464142263  MEMB      86              0.0000000000
     11466        92  POPS      H7S            42.2629273900       49.2731805633       34.6830621217  MEMB      86              0.0000000000
     11467        92  POPS      C28            44.3056520357       48.6553885206       34.3013818381  MEMB      86              0.0000000000
     11468        92  POPS      H8R            44.6694574387       49.5339170021       33.7258617166  MEMB      86              0.0000000000
     11469        92  POPS      H8S            44.8460512679       47.7731395201       33.9263633488  MEMB      86              0.0000000000
     11470        92  POPS      C29            44.6096537978       48.7617400014       35.7514416928  MEMB      86              0.0000000000
     11471        92  POPS      H91            44.2917022930       47.9133307819       36.3678090140  MEMB      86              0.0000000000
     11472        92  POPS      C210           45.1685836633       49.8250743191       36.3108107471  MEMB      86              0.0000000000
     11473        92  POPS      H101           45.3968766024       49.7970719336       37.3828598799  MEMB      86              0.0000000000
     11474        92  POPS      C211           45.5756520286       51.0783954252       35.5898420351  MEMB      86              0.0000000000
     11475        92  POPS      H11R           44.6866450096       51.5945621640       35.1677369033  MEMB      86              0.0000000000
     11476        92  POPS      H11S           46.2973007182       50.9009256431       34.7636053653  MEMB      86              0.0000000000
     11477        92  POPS      C212           46.1701013001       51.9436395222       36.6838658423  MEMB      86              0.0000000000
     11478        92  POPS      H12R           47.0046156574       51.4075014668       37.1921185646  MEMB      86              0.0000000000
     11479        92  POPS      H12S           45.3619830228       52.1303576053       37.4298837750  MEMB      86              0.0000000000
     11480        92  POPS      C213           46.6944972397       53.3115303607       36.2653298661  MEMB      86              0.0000000000
     11481        92  POPS      H13R           46.0578852221       53.7513339112       35.4680888540  MEMB      86              0.0000000000
     11482        92  POPS      H13S           47.7049957771       53.1665348629       35.8293581004  MEMB      86              0.0000000000
     11483        92  POPS      C214           46.7039880394       54.2440111176       37.4889578114  MEMB      86              0.0000000000
     11484        92  POPS      H14R           45.6579561180       54.5966646885       37.6374081173  MEMB      86              0.0000000000
     11485        92  POPS      H14S           47.3186547042       55.1447455832       37.2853975051  MEMB      86              0.0000000000
     11486        92  POPS      C215           47.1480537306       53.5507613845       38.7982669726  MEMB      86              0.0000000000
     11487        92  POPS      H15R           48.2115281362       53.2671561841       38.7825620995  MEMB      86              0.0000000000
     11488        92  POPS      H15S           46.5937940805       52.6020688529       38.9624681637  MEMB      86              0.0000000000
     11489        92  POPS      C216           46.8095006581       54.3445610270       40.0535093134  MEMB      86              0.0000000000
     11490        92  POPS      H16R           46.7029260851       53.6259223359       40.8940239755  MEMB      86              0.0000000000
     11491        92  POPS      H16S           45.8255300521       54.7870807521       39.8587100703  MEMB      86              0.0000000000
     11492        92  POPS      C217           47.7852656862       55.4455005031       40.4460579367  MEMB      86              0.0000000000
     11493        92  POPS      H17R           47.8554357095       56.1737074578       39.6071238478  MEMB      86              0.0000000000
     11494        92  POPS      H17S           48.7744300991       54.9597001744       40.5928468122  MEMB      86              0.0000000000
     11495        92  POPS      C218           47.4229840347       56.1989767399       41.7214593652  MEMB      86              0.0000000000
     11496        92  POPS      H18R           47.8788437961       57.2046579153       41.7341124472  MEMB      86              0.0000000000
     11497        92  POPS      H18S           47.7630882614       55.6513736606       42.6224494437  MEMB      86              0.0000000000
     11498        92  POPS      H18T           46.3263679128       56.3338774012       41.8017574984  MEMB      86              0.0000000000
     11499        92  POPS      C33            43.3366767574       53.2145606736       31.1209091261  MEMB      86              0.0000000000
     11500        92  POPS      H3X            42.2635533309       53.0064179281       30.9002420044  MEMB      86              0.0000000000
     11501        92  POPS      H3Y            43.4358867365       54.3068719104       31.2922090017  MEMB      86              0.0000000000
     11502        92  POPS      C34            43.7011378872       52.4396799134       32.3955325978  MEMB      86              0.0000000000
     11503        92  POPS      H4X            44.7480145847       52.6520884952       32.7064698519  MEMB      86              0.0000000000
     11504        92  POPS      H4Y            43.6514604071       51.3655189251       32.1588391991  MEMB      86              0.0000000000
     11505        92  POPS      C35            42.7615567673       52.7459490117       33.5674963832  MEMB      86              0.0000000000
     11506        92  POPS      H5X            42.7547787356       51.9043291018       34.2950530789  MEMB      86              0.0000000000
     11507        92  POPS      H5Y            41.7250288417       52.8280478480       33.1913569877  MEMB      86              0.0000000000
     11508        92  POPS      C36            43.1962128193       54.0361992878       34.2731141330  MEMB      86              0.0000000000
     11509        92  POPS      H6X            43.6857778275       54.6882175904       33.5198213972  MEMB      86              0.0000000000
     11510        92  POPS      H6Y            43.9616135778       53.7796369121       35.0353908306  MEMB      86              0.0000000000
     11511        92  POPS      C37            42.0671138901       54.8349920672       34.9303903689  MEMB      86              0.0000000000
     11512        92  POPS      H7X            41.2739828423       55.0702296889       34.1990834381  MEMB      86              0.0000000000
     11513        92  POPS      H7Y            42.4698005821       55.8054679692       35.2826192983  MEMB      86              0.0000000000
     11514        92  POPS      C38            41.4663303785       54.1218863072       36.1323961171  MEMB      86              0.0000000000
     11515        92  POPS      H8X            41.4202437142       53.0300990837       35.9360594134  MEMB      86              0.0000000000
     11516        92  POPS      H8Y            40.4163516010       54.4448280520       36.2865153872  MEMB      86              0.0000000000
     11517        92  POPS      C39            42.2860962728       54.4270285583       37.3861418032  MEMB      86              0.0000000000
     11518        92  POPS      H9X            42.0793489540       55.4483959889       37.7651795049  MEMB      86              0.0000000000
     11519        92  POPS      H9Y            43.3730777422       54.3905794590       37.1447131685  MEMB      86              0.0000000000
     11520        92  POPS      C310           42.0013640926       53.4263029745       38.4860241305  MEMB      86              0.0000000000
     11521        92  POPS      H10X           40.9069447302       53.3527016752       38.6652391370  MEMB      86              0.0000000000
     11522        92  POPS      H10Y           42.4689768981       53.7981782038       39.4260567338  MEMB      86              0.0000000000
     11523        92  POPS      C311           42.5936211564       52.0649471435       38.1340575869  MEMB      86              0.0000000000
     11524        92  POPS      H11X           43.2604011349       52.1435940270       37.2457081700  MEMB      86              0.0000000000
     11525        92  POPS      H11Y           41.7705075203       51.3692582708       37.8571604680  MEMB      86              0.0000000000
     11526        92  POPS      C312           43.3895191417       51.5352458220       39.3183021667  MEMB      86              0.0000000000
     11527        92  POPS      H12X           42.7822722456       51.7698061987       40.2254827326  MEMB      86              0.0000000000
     11528        92  POPS      H12Y           44.3515378815       52.0802591115       39.4324937182  MEMB      86              0.0000000000
     11529        92  POPS      C313           43.6058832207       50.0269208536       39.2526460190  MEMB      86              0.0000000000
     11530        92  POPS      H13X           44.6920795334       49.7874784123       39.2572678557  MEMB      86              0.0000000000
     11531        92  POPS      H13Y           43.1518136431       49.6200147350       38.3202098353  MEMB      86              0.0000000000
     11532        92  POPS      C314           42.9596754683       49.3756955988       40.4618780649  MEMB      86              0.0000000000
     11533        92  POPS      H14X           42.8815718990       48.2759228185       40.3210087154  MEMB      86              0.0000000000
     11534        92  POPS      H14Y           41.9284953196       49.7808908561       40.5562193113  MEMB      86              0.0000000000
     11535        92  POPS      C315           43.7409634480       49.7083480428       41.7318146886  MEMB      86              0.0000000000
     11536        92  POPS      H15X           43.8862089908       50.8060040144       41.8266930771  MEMB      86              0.0000000000
     11537        92  POPS      H15Y           44.7588864269       49.2647725060       41.6554151279  MEMB      86              0.0000000000
     11538        92  POPS      C316           43.0398360903       49.1920330249       42.9754209662  MEMB      86              0.0000000000
     11539        92  POPS      H16X           42.1047026950       49.7388948187       43.1793924730  MEMB      86              0.0000000000
     11540        92  POPS      H16Y           43.7050973445       49.2902511148       43.8590932242  MEMB      86              0.0000000000
     11541        92  POPS      H16Z           42.7442950953       48.1320558308       42.8489040061  MEMB      86              0.0000000000
     11542        93  POPC      N              10.2194872068       29.4296072992       22.8015086964  MEMB      87              0.0000000000
     11543        93  POPC      C12            11.7014181084       29.6538307378       22.5294388878  MEMB      87              0.0000000000
     11544        93  POPC      H12A           11.8078647578       30.6838496050       22.2084408298  MEMB      87              0.0000000000
     11545        93  POPC      H12B           12.0016469252       29.0352652149       21.6874174017  MEMB      87              0.0000000000
     11546        93  POPC      C13             9.9293764446       28.0374217412       23.2947711766  MEMB      87              0.0000000000
     11547        93  POPC      H13A           10.6062322244       27.3266253658       22.8363362932  MEMB      87              0.0000000000
     11548        93  POPC      H13B           10.1405333006       27.9393954750       24.3606694269  MEMB      87              0.0000000000
     11549        93  POPC      H13C            8.8947874793       27.7606627267       23.1047114998  MEMB      87              0.0000000000
     11550        93  POPC      C14             9.6904083372       30.4195077565       23.7994850912  MEMB      87              0.0000000000
     11551        93  POPC      H14A           10.1102961786       30.2359990328       24.7796919011  MEMB      87              0.0000000000
     11552        93  POPC      H14B            9.8533470825       31.4615398030       23.5349156903  MEMB      87              0.0000000000
     11553        93  POPC      H14C            8.6001649746       30.3256278043       23.8739180327  MEMB      87              0.0000000000
     11554        93  POPC      C15             9.4977645684       29.6485603277       21.5157959798  MEMB      87              0.0000000000
     11555        93  POPC      H15A            8.4368857245       29.4373114827       21.6601631477  MEMB      87              0.0000000000
     11556        93  POPC      H15B            9.8648264192       28.9813342873       20.7436445702  MEMB      87              0.0000000000
     11557        93  POPC      H15C            9.6252064799       30.6726624280       21.1767054157  MEMB      87              0.0000000000
     11558        93  POPC      C11            12.7217533163       29.3732653977       23.6526267261  MEMB      87              0.0000000000
     11559        93  POPC      H11A           12.4394905791       29.9542964136       24.5592048593  MEMB      87              0.0000000000
     11560        93  POPC      H11B           13.7282706114       29.7337874020       23.3308184674  MEMB      87              0.0000000000
     11561        93  POPC      P              13.8026524564       26.9570867191       23.4262952567  MEMB      87              0.0000000000
     11562        93  POPC      O13            15.1021951061       27.6417735280       23.1868970181  MEMB      87              0.0000000000
     11563        93  POPC      O14            13.1892732266       26.1897112479       22.3123669111  MEMB      87              0.0000000000
     11564        93  POPC      O12            12.7368131667       27.9918762696       23.9613448898  MEMB      87              0.0000000000
     11565        93  POPC      O11            13.9619948284       25.9830459096       24.6568362254  MEMB      87              0.0000000000
     11566        93  POPC      C1             12.8771708271       25.6077843468       25.5063041728  MEMB      87              0.0000000000
     11567        93  POPC      HA             12.7239368297       24.5101033740       25.3965946407  MEMB      87              0.0000000000
     11568        93  POPC      HB             11.9106881113       26.0864991782       25.2337410064  MEMB      87              0.0000000000
     11569        93  POPC      C2             13.1912390726       25.8453271809       27.0206906178  MEMB      87              0.0000000000
     11570        93  POPC      HS             12.3815805014       25.3265557481       27.5841252768  MEMB      87              0.0000000000
     11571        93  POPC      O21            13.2360040334       27.2251795481       27.4330921531  MEMB      87              0.0000000000
     11572        93  POPC      C21            12.0803723542       27.8469045897       27.4088773469  MEMB      87              0.0000000000
     11573        93  POPC      O22            11.0347608639       27.4390522917       26.9303718754  MEMB      87              0.0000000000
     11574        93  POPC      C22            12.1794421563       29.1323851904       28.2326635632  MEMB      87              0.0000000000
     11575        93  POPC      H2R            12.4351437562       29.9691239685       27.5545496712  MEMB      87              0.0000000000
     11576        93  POPC      H2S            12.9779703373       29.0256268941       28.9957400990  MEMB      87              0.0000000000
     11577        93  POPC      C3             14.5498824240       25.1875012795       27.4125460221  MEMB      87              0.0000000000
     11578        93  POPC      HX             15.3127740952       25.6248390555       26.7291033898  MEMB      87              0.0000000000
     11579        93  POPC      HY             14.5095068915       24.0983126055       27.2037540631  MEMB      87              0.0000000000
     11580        93  POPC      O31            14.9764754119       25.4406497114       28.7698671692  MEMB      87              0.0000000000
     11581        93  POPC      C31            14.1528908603       25.0558672803       29.7403382990  MEMB      87              0.0000000000
     11582        93  POPC      O32            13.1069146189       24.4511437962       29.5899843565  MEMB      87              0.0000000000
     11583        93  POPC      C32            14.7572660035       25.3991161377       31.1061896587  MEMB      87              0.0000000000
     11584        93  POPC      H2X            15.6383021985       26.0548375346       30.9476434430  MEMB      87              0.0000000000
     11585        93  POPC      H2Y            15.1079785192       24.4529158605       31.5659563291  MEMB      87              0.0000000000
     11586        93  POPC      C23            10.8174886539       29.3726749376       28.9204270221  MEMB      87              0.0000000000
     11587        93  POPC      H3R            10.5688254586       28.4956968725       29.5636604249  MEMB      87              0.0000000000
     11588        93  POPC      H3S            10.0273099200       29.4530477928       28.1353932824  MEMB      87              0.0000000000
     11589        93  POPC      C24            10.7507591908       30.6385152943       29.7774968147  MEMB      87              0.0000000000
     11590        93  POPC      H4R            11.0893761572       31.5020084472       29.1577951546  MEMB      87              0.0000000000
     11591        93  POPC      H4S            11.4383222148       30.5534405122       30.6474916892  MEMB      87              0.0000000000
     11592        93  POPC      C25             9.3163074792       30.9063263320       30.2606908519  MEMB      87              0.0000000000
     11593        93  POPC      H5R             8.6395840937       30.9194720429       29.3764939271  MEMB      87              0.0000000000
     11594        93  POPC      H5S             9.2564141829       31.9188402071       30.7052988038  MEMB      87              0.0000000000
     11595        93  POPC      C26             8.7737424549       29.9065235634       31.3020854765  MEMB      87              0.0000000000
     11596        93  POPC      H6R             8.8043162298       28.8676378704       30.9132303456  MEMB      87              0.0000000000
     11597        93  POPC      H6S             7.7003949246       30.1710257514       31.4586698778  MEMB      87              0.0000000000
     11598        93  POPC      C27             9.4836496325       29.9958443667       32.6641068103  MEMB      87              0.0000000000
     11599        93  POPC      H7R             9.5809112021       31.0756546489       32.9053667928  MEMB      87              0.0000000000
     11600        93  POPC      H7S            10.5156845538       29.5882836397       32.5970812652  MEMB      87              0.0000000000
     11601        93  POPC      C28             8.7140003945       29.2894418164       33.8012206929  MEMB      87              0.0000000000
     11602        93  POPC      H8R             9.0142452239       28.2174702899       33.8266718297  MEMB      87              0.0000000000
     11603        93  POPC      H8S             7.6310045924       29.3071835277       33.5474347549  MEMB      87              0.0000000000
     11604        93  POPC      C29             8.8968182370       29.9593207406       35.1430559767  MEMB      87              0.0000000000
     11605        93  POPC      H91             8.1056151980       30.6809520567       35.4040949736  MEMB      87              0.0000000000
     11606        93  POPC      C210            9.9384163950       29.8183869617       35.9834889448  MEMB      87              0.0000000000
     11607        93  POPC      H101            9.9498930901       30.3989683390       36.9185079761  MEMB      87              0.0000000000
     11608        93  POPC      C211           11.1560308199       28.9581243304       35.7679260349  MEMB      87              0.0000000000
     11609        93  POPC      H11R           11.0695214576       28.3588328833       34.8380568033  MEMB      87              0.0000000000
     11610        93  POPC      H11S           11.2620020703       28.2338123766       36.5993922155  MEMB      87              0.0000000000
     11611        93  POPC      C212           12.4391013017       29.8034984933       35.6752162196  MEMB      87              0.0000000000
     11612        93  POPC      H12R           12.6224570470       30.3418655628       36.6309756496  MEMB      87              0.0000000000
     11613        93  POPC      H12S           12.2946385159       30.5755167310       34.8819501600  MEMB      87              0.0000000000
     11614        93  POPC      C213           13.6830919213       28.9841643941       35.2881974754  MEMB      87              0.0000000000
     11615        93  POPC      H13R           14.5105280344       29.6979409470       35.1065575686  MEMB      87              0.0000000000
     11616        93  POPC      H13S           13.4771969119       28.4776493358       34.3187402835  MEMB      87              0.0000000000
     11617        93  POPC      C214           14.1514385206       27.9199926122       36.3014818284  MEMB      87              0.0000000000
     11618        93  POPC      H14R           15.0965509713       27.4706741667       35.9197209425  MEMB      87              0.0000000000
     11619        93  POPC      H14S           13.3952710503       27.1082217984       36.3437446864  MEMB      87              0.0000000000
     11620        93  POPC      C215           14.3920161516       28.4190559137       37.7353371136  MEMB      87              0.0000000000
     11621        93  POPC      H15R           13.4326805828       28.7900302615       38.1597215093  MEMB      87              0.0000000000
     11622        93  POPC      H15S           15.1054392306       29.2669356874       37.7270767188  MEMB      87              0.0000000000
     11623        93  POPC      C216           14.9528448363       27.3199750332       38.6554898293  MEMB      87              0.0000000000
     11624        93  POPC      H16R           15.9527842244       26.9999669485       38.2874991887  MEMB      87              0.0000000000
     11625        93  POPC      H16S           14.2778695287       26.4383286363       38.5944383523  MEMB      87              0.0000000000
     11626        93  POPC      C217           15.0587776306       27.7503770371       40.1270097203  MEMB      87              0.0000000000
     11627        93  POPC      H17R           15.1996407769       26.8410396497       40.7566811233  MEMB      87              0.0000000000
     11628        93  POPC      H17S           14.0924219131       28.2137514716       40.4286738734  MEMB      87              0.0000000000
     11629        93  POPC      C218           16.2004715214       28.7281338271       40.4139296706  MEMB      87              0.0000000000
     11630        93  POPC      H18R           16.1614546120       29.0749019294       41.4691385808  MEMB      87              0.0000000000
     11631        93  POPC      H18S           16.1328706473       29.6198529951       39.7536565509  MEMB      87              0.0000000000
     11632        93  POPC      H18T           17.1820302087       28.2376752590       40.2408210089  MEMB      87              0.0000000000
     11633        93  POPC      C33            13.7490384001       26.0956315426       32.0544472489  MEMB      87              0.0000000000
     11634        93  POPC      H3X            13.2605916783       26.9578768400       31.5460645484  MEMB      87              0.0000000000
     11635        93  POPC      H3Y            14.3234709070       26.5089548009       32.9158506477  MEMB      87              0.0000000000
     11636        93  POPC      C34            12.6684169079       25.1610781587       32.6298398035  MEMB      87              0.0000000000
     11637        93  POPC      H4X            13.1398258057       24.2321293260       33.0202011197  MEMB      87              0.0000000000
     11638        93  POPC      H4Y            11.9567199335       24.8692348610       31.8246951286  MEMB      87              0.0000000000
     11639        93  POPC      C35            11.8896004252       25.8485495586       33.7606804196  MEMB      87              0.0000000000
     11640        93  POPC      H5X            11.5196205025       26.8213892439       33.3614745415  MEMB      87              0.0000000000
     11641        93  POPC      H5Y            12.5880697639       26.0766259543       34.5935187679  MEMB      87              0.0000000000
     11642        93  POPC      C36            10.6743277419       25.0750366402       34.3086716943  MEMB      87              0.0000000000
     11643        93  POPC      H6X             9.9786614741       24.8576884537       33.4702106480  MEMB      87              0.0000000000
     11644        93  POPC      H6Y            10.1280289494       25.7527443807       35.0047610121  MEMB      87              0.0000000000
     11645        93  POPC      C37            10.9833700784       23.7669822301       35.0683851650  MEMB      87              0.0000000000
     11646        93  POPC      H7X            11.3454750551       23.0061608265       34.3412427598  MEMB      87              0.0000000000
     11647        93  POPC      H7Y            10.0328071834       23.3829798889       35.5042310647  MEMB      87              0.0000000000
     11648        93  POPC      C38            12.0275559196       23.8908046380       36.1909070586  MEMB      87              0.0000000000
     11649        93  POPC      H8X            13.0133881813       24.1125530627       35.7202282077  MEMB      87              0.0000000000
     11650        93  POPC      H8Y            12.1244725124       22.9178413980       36.7234428028  MEMB      87              0.0000000000
     11651        93  POPC      C39            11.7341903282       24.9966949600       37.2130437867  MEMB      87              0.0000000000
     11652        93  POPC      H9X            11.4952789444       25.9468924494       36.6917829786  MEMB      87              0.0000000000
     11653        93  POPC      H9Y            12.6720418993       25.1670002235       37.7875337379  MEMB      87              0.0000000000
     11654        93  POPC      C310           10.6123154279       24.6618404342       38.2042453952  MEMB      87              0.0000000000
     11655        93  POPC      H10X           11.0001175030       23.8989496987       38.9162832447  MEMB      87              0.0000000000
     11656        93  POPC      H10Y            9.7487814656       24.2076990551       37.6702206453  MEMB      87              0.0000000000
     11657        93  POPC      C311           10.1091558059       25.8832434007       38.9941517710  MEMB      87              0.0000000000
     11658        93  POPC      H11X            9.6221661589       25.5110063438       39.9232535658  MEMB      87              0.0000000000
     11659        93  POPC      H11Y            9.3314881425       26.4195135119       38.4051975184  MEMB      87              0.0000000000
     11660        93  POPC      C312           11.2129274027       26.8870756672       39.3643900663  MEMB      87              0.0000000000
     11661        93  POPC      H12X           11.3313744394       27.6397077729       38.5597323495  MEMB      87              0.0000000000
     11662        93  POPC      H12Y           12.1805723945       26.3479061479       39.4672671239  MEMB      87              0.0000000000
     11663        93  POPC      C313           10.9843881318       27.5921827047       40.7010321977  MEMB      87              0.0000000000
     11664        93  POPC      H13X           11.8582481672       28.2383997291       40.9366840034  MEMB      87              0.0000000000
     11665        93  POPC      H13Y           10.9568194890       26.7936241925       41.4620083460  MEMB      87              0.0000000000
     11666        93  POPC      C314            9.6945120016       28.4082341205       40.8096539344  MEMB      87              0.0000000000
     11667        93  POPC      H14X            8.8291033709       27.8411511639       40.4056629304  MEMB      87              0.0000000000
     11668        93  POPC      H14Y            9.8140176488       29.3298412577       40.1958955996  MEMB      87              0.0000000000
     11669        93  POPC      C315            9.4099874216       28.7954810520       42.2676889455  MEMB      87              0.0000000000
     11670        93  POPC      H15X            8.5815927946       29.5337964402       42.2875374652  MEMB      87              0.0000000000
     11671        93  POPC      H15Y           10.3126422580       29.3156893978       42.6508181295  MEMB      87              0.0000000000
     11672        93  POPC      C316            9.0930134796       27.6338693823       43.2239160250  MEMB      87              0.0000000000
     11673        93  POPC      H16X            9.5523953908       27.8211583998       44.2167805039  MEMB      87              0.0000000000
     11674        93  POPC      H16Y            9.4708978307       26.6665696249       42.8455640795  MEMB      87              0.0000000000
     11675        93  POPC      H16Z            8.0090926967       27.5098394796       43.3840429743  MEMB      87              0.0000000000
     11676        94  POPC      N              55.3947200003       38.6539206711       24.1890409533  MEMB      88              0.0000000000
     11677        94  POPC      C12            54.1419840878       37.8530289417       23.8438046310  MEMB      88              0.0000000000
     11678        94  POPC      H12A           53.3569937257       38.1325066336       24.5495754983  MEMB      88              0.0000000000
     11679        94  POPC      H12B           54.3340328605       36.8025285817       24.0000940104  MEMB      88              0.0000000000
     11680        94  POPC      C13            56.4951818352       38.3761409993       23.2175389107  MEMB      88              0.0000000000
     11681        94  POPC      H13A           56.1463738557       38.5246650171       22.2022596468  MEMB      88              0.0000000000
     11682        94  POPC      H13B           57.3125639673       39.0679190354       23.3816662037  MEMB      88              0.0000000000
     11683        94  POPC      H13C           56.8954538182       37.3727826621       23.3367172077  MEMB      88              0.0000000000
     11684        94  POPC      C14            55.0431265069       40.1156335626       24.1352383107  MEMB      88              0.0000000000
     11685        94  POPC      H14A           55.8982870015       40.7462367378       24.3360664579  MEMB      88              0.0000000000
     11686        94  POPC      H14B           54.6360791274       40.3332177941       23.1459584358  MEMB      88              0.0000000000
     11687        94  POPC      H14C           54.2434133863       40.3286335867       24.8411826866  MEMB      88              0.0000000000
     11688        94  POPC      C15            55.8830605833       38.3229203714       25.5574331189  MEMB      88              0.0000000000
     11689        94  POPC      H15A           55.1241921581       38.5878211720       26.2925205205  MEMB      88              0.0000000000
     11690        94  POPC      H15B           56.7908537932       38.8689653615       25.7783823287  MEMB      88              0.0000000000
     11691        94  POPC      H15C           56.1198863259       37.2687161268       25.6446606012  MEMB      88              0.0000000000
     11692        94  POPC      C11            53.5073247111       38.0611590720       22.4400888336  MEMB      88              0.0000000000
     11693        94  POPC      H11A           52.8449283487       37.1881851799       22.2117329188  MEMB      88              0.0000000000
     11694        94  POPC      H11B           54.3065306839       38.0499425703       21.6694380753  MEMB      88              0.0000000000
     11695        94  POPC      P              51.2633910043       39.3625127681       22.7700493821  MEMB      88              0.0000000000
     11696        94  POPC      O13            50.5099968742       38.3723532265       21.9612455035  MEMB      88              0.0000000000
     11697        94  POPC      O14            50.7911688066       40.7777986607       22.8280419414  MEMB      88              0.0000000000
     11698        94  POPC      O12            52.7986489338       39.3045880513       22.3516990360  MEMB      88              0.0000000000
     11699        94  POPC      O11            51.3983308743       38.8398563339       24.2423151591  MEMB      88              0.0000000000
     11700        94  POPC      C1             50.2295996421       38.3736684622       24.8974540622  MEMB      88              0.0000000000
     11701        94  POPC      HA             50.0046935707       37.3475505740       24.5451690421  MEMB      88              0.0000000000
     11702        94  POPC      HB             49.3497687675       39.0297458777       24.7123372281  MEMB      88              0.0000000000
     11703        94  POPC      C2             50.4486754968       38.3571471324       26.4131637769  MEMB      88              0.0000000000
     11704        94  POPC      HS             50.9009042146       39.3406894542       26.6923625790  MEMB      88              0.0000000000
     11705        94  POPC      O21            51.2864316579       37.2491484646       26.7576890096  MEMB      88              0.0000000000
     11706        94  POPC      C21            52.5593298354       37.5131659494       26.7829319376  MEMB      88              0.0000000000
     11707        94  POPC      O22            53.1093027149       38.5777170808       26.5583262822  MEMB      88              0.0000000000
     11708        94  POPC      C22            53.3105939026       36.3165800602       27.3422735330  MEMB      88              0.0000000000
     11709        94  POPC      H2R            54.3138265823       36.2475823896       26.8771598246  MEMB      88              0.0000000000
     11710        94  POPC      H2S            52.7530830697       35.3760416957       27.1382082656  MEMB      88              0.0000000000
     11711        94  POPC      C3             49.1108705412       38.2093530031       27.1884614670  MEMB      88              0.0000000000
     11712        94  POPC      HX             48.6219895165       37.2831918078       26.8123145009  MEMB      88              0.0000000000
     11713        94  POPC      HY             48.4372343677       39.0610188241       26.9492685468  MEMB      88              0.0000000000
     11714        94  POPC      O31            49.3153861041       38.0680922974       28.6116942733  MEMB      88              0.0000000000
     11715        94  POPC      C31            49.8993670107       39.0961289193       29.2027437638  MEMB      88              0.0000000000
     11716        94  POPC      O32            50.0190622463       40.2156379503       28.7481694521  MEMB      88              0.0000000000
     11717        94  POPC      C32            50.4309530707       38.6650002854       30.5540186070  MEMB      88              0.0000000000
     11718        94  POPC      H2X            51.1908070426       37.8906303628       30.3473857353  MEMB      88              0.0000000000
     11719        94  POPC      H2Y            49.5869916680       38.2304608469       31.1251355632  MEMB      88              0.0000000000
     11720        94  POPC      C23            53.4254833817       36.5965018414       28.8457747025  MEMB      88              0.0000000000
     11721        94  POPC      H3R            52.3867058882       36.5532893969       29.2480006882  MEMB      88              0.0000000000
     11722        94  POPC      H3S            53.8051598285       37.6271199085       29.0423776001  MEMB      88              0.0000000000
     11723        94  POPC      C24            54.2960094542       35.6209500016       29.6299142990  MEMB      88              0.0000000000
     11724        94  POPC      H4R            55.3507761404       35.9733902054       29.6307543539  MEMB      88              0.0000000000
     11725        94  POPC      H4S            54.2684563202       34.6137108553       29.1628628358  MEMB      88              0.0000000000
     11726        94  POPC      C25            53.7668529216       35.5057053476       31.0621876409  MEMB      88              0.0000000000
     11727        94  POPC      H5R            53.5807971592       36.5405019629       31.4328500570  MEMB      88              0.0000000000
     11728        94  POPC      H5S            54.5232730968       35.0449032461       31.7320798833  MEMB      88              0.0000000000
     11729        94  POPC      C26            52.4459635185       34.7133257037       31.1352531337  MEMB      88              0.0000000000
     11730        94  POPC      H6R            52.6560881264       33.6778581215       31.4652912618  MEMB      88              0.0000000000
     11731        94  POPC      H6S            51.9975022096       34.6229339716       30.1212365096  MEMB      88              0.0000000000
     11732        94  POPC      C27            51.4353631252       35.4139381995       32.0553285051  MEMB      88              0.0000000000
     11733        94  POPC      H7R            51.2148958801       36.3854022458       31.5860592018  MEMB      88              0.0000000000
     11734        94  POPC      H7S            51.9065554148       35.6479891070       33.0299614410  MEMB      88              0.0000000000
     11735        94  POPC      C28            50.0908512830       34.6976759222       32.2658043464  MEMB      88              0.0000000000
     11736        94  POPC      H8R            49.7363850690       34.3181517907       31.2789604808  MEMB      88              0.0000000000
     11737        94  POPC      H8S            49.3480253269       35.4562784116       32.6013746951  MEMB      88              0.0000000000
     11738        94  POPC      C29            50.1744763567       33.5817513513       33.2732581395  MEMB      88              0.0000000000
     11739        94  POPC      H91            50.1863899309       32.5766804852       32.8216089536  MEMB      88              0.0000000000
     11740        94  POPC      C210           50.1631983990       33.6897162958       34.6206337767  MEMB      88              0.0000000000
     11741        94  POPC      H101           50.1983659578       32.7641911551       35.2158087391  MEMB      88              0.0000000000
     11742        94  POPC      C211           50.0633277462       34.9560429312       35.4393873133  MEMB      88              0.0000000000
     11743        94  POPC      H11R           49.0560206724       35.4106157474       35.3091906676  MEMB      88              0.0000000000
     11744        94  POPC      H11S           50.7969349955       35.7083360564       35.0837614574  MEMB      88              0.0000000000
     11745        94  POPC      C212           50.2852997482       34.7114015362       36.9533193002  MEMB      88              0.0000000000
     11746        94  POPC      H12R           51.2765466814       34.2366133995       37.1179546572  MEMB      88              0.0000000000
     11747        94  POPC      H12S           49.5095448136       34.0046589679       37.3237217611  MEMB      88              0.0000000000
     11748        94  POPC      C213           50.2154050481       35.9988983170       37.7965330713  MEMB      88              0.0000000000
     11749        94  POPC      H13R           49.3685148530       36.6099020669       37.4136116229  MEMB      88              0.0000000000
     11750        94  POPC      H13S           51.1342840877       36.6026417283       37.6345327025  MEMB      88              0.0000000000
     11751        94  POPC      C214           49.9956117535       35.7855767205       39.3112507642  MEMB      88              0.0000000000
     11752        94  POPC      H14R           48.9971308866       35.3321890925       39.4763342486  MEMB      88              0.0000000000
     11753        94  POPC      H14S           49.9880130059       36.7923944821       39.7897661131  MEMB      88              0.0000000000
     11754        94  POPC      C215           51.0310325183       34.9135226952       40.0397302460  MEMB      88              0.0000000000
     11755        94  POPC      H15R           51.9036153366       34.7652312747       39.3641176808  MEMB      88              0.0000000000
     11756        94  POPC      H15S           50.6127989413       33.9077031340       40.2598712041  MEMB      88              0.0000000000
     11757        94  POPC      C216           51.5476780462       35.5543498950       41.3419306942  MEMB      88              0.0000000000
     11758        94  POPC      H16R           51.8303121609       36.6000560083       41.1164381430  MEMB      88              0.0000000000
     11759        94  POPC      H16S           52.4763768496       35.0305517637       41.6502365751  MEMB      88              0.0000000000
     11760        94  POPC      C217           50.6022886943       35.4959728716       42.5503311751  MEMB      88              0.0000000000
     11761        94  POPC      H17R           50.1918932052       34.4632718756       42.6184643196  MEMB      88              0.0000000000
     11762        94  POPC      H17S           49.7460367514       36.1883325734       42.3923778030  MEMB      88              0.0000000000
     11763        94  POPC      C218           51.3108209596       35.8214087330       43.8748802604  MEMB      88              0.0000000000
     11764        94  POPC      H18R           52.2953413815       35.3095180859       43.9238187374  MEMB      88              0.0000000000
     11765        94  POPC      H18S           50.7172154831       35.4836914412       44.7452957589  MEMB      88              0.0000000000
     11766        94  POPC      H18T           51.4784743009       36.9103309521       43.9935379138  MEMB      88              0.0000000000
     11767        94  POPC      C33            51.1138415341       39.8168980864       31.3268889760  MEMB      88              0.0000000000
     11768        94  POPC      H3X            50.3899053238       40.6546863152       31.4450835608  MEMB      88              0.0000000000
     11769        94  POPC      H3Y            51.9716491295       40.2138930455       30.7366581832  MEMB      88              0.0000000000
     11770        94  POPC      C34            51.6313480816       39.4113432456       32.7197897682  MEMB      88              0.0000000000
     11771        94  POPC      H4X            51.9052565813       40.3624110086       33.2277728027  MEMB      88              0.0000000000
     11772        94  POPC      H4Y            52.5508785834       38.7943338215       32.6375178748  MEMB      88              0.0000000000
     11773        94  POPC      C35            50.5907871173       38.6456021627       33.5519962721  MEMB      88              0.0000000000
     11774        94  POPC      H5X            50.4271404309       37.6301152321       33.1417235842  MEMB      88              0.0000000000
     11775        94  POPC      H5Y            49.6513384767       39.2057745574       33.4335346474  MEMB      88              0.0000000000
     11776        94  POPC      C36            50.8751631027       38.5371724335       35.0545862911  MEMB      88              0.0000000000
     11777        94  POPC      H6X            51.8350771085       38.0010630964       35.2148370529  MEMB      88              0.0000000000
     11778        94  POPC      H6Y            50.0646078841       37.9444195334       35.5365492295  MEMB      88              0.0000000000
     11779        94  POPC      C37            50.9292654419       39.9141327733       35.7114101755  MEMB      88              0.0000000000
     11780        94  POPC      H7X            49.9889290903       40.4680209855       35.4840861049  MEMB      88              0.0000000000
     11781        94  POPC      H7Y            51.7731939780       40.4710451577       35.2547952812  MEMB      88              0.0000000000
     11782        94  POPC      C38            51.1394522615       39.9019674010       37.2262407436  MEMB      88              0.0000000000
     11783        94  POPC      H8X            52.0882361644       39.3808310593       37.4780861554  MEMB      88              0.0000000000
     11784        94  POPC      H8Y            50.3079800125       39.3428319783       37.7128291655  MEMB      88              0.0000000000
     11785        94  POPC      C39            51.1602913656       41.3362714158       37.7743728204  MEMB      88              0.0000000000
     11786        94  POPC      H9X            51.2900748665       41.3221995384       38.8781182862  MEMB      88              0.0000000000
     11787        94  POPC      H9Y            50.1721218352       41.7845744868       37.5453639228  MEMB      88              0.0000000000
     11788        94  POPC      C310           52.1765997059       42.2840216521       37.1194196865  MEMB      88              0.0000000000
     11789        94  POPC      H10X           52.0662164640       43.2946362036       37.5722199280  MEMB      88              0.0000000000
     11790        94  POPC      H10Y           51.9170756487       42.3721081034       36.0444717708  MEMB      88              0.0000000000
     11791        94  POPC      C311           53.6350132922       41.8422800936       37.2315650935  MEMB      88              0.0000000000
     11792        94  POPC      H11X           54.2991591567       42.6358473910       36.8229112185  MEMB      88              0.0000000000
     11793        94  POPC      H11Y           53.7827456130       40.9295372768       36.6085007261  MEMB      88              0.0000000000
     11794        94  POPC      C312           54.0358680459       41.5206666214       38.6693759196  MEMB      88              0.0000000000
     11795        94  POPC      H12X           55.0820368517       41.1444172708       38.6669543901  MEMB      88              0.0000000000
     11796        94  POPC      H12Y           53.4004500653       40.6793789962       39.0229377869  MEMB      88              0.0000000000
     11797        94  POPC      C313           53.9137392552       42.6844045565       39.6756259683  MEMB      88              0.0000000000
     11798        94  POPC      H13X           52.8472864218       42.9702336787       39.8074626279  MEMB      88              0.0000000000
     11799        94  POPC      H13Y           54.4559528440       43.5813913612       39.3174392035  MEMB      88              0.0000000000
     11800        94  POPC      C314           54.4887207463       42.2053372571       41.0080836433  MEMB      88              0.0000000000
     11801        94  POPC      H14X           55.4332114339       41.6590972425       40.8022878751  MEMB      88              0.0000000000
     11802        94  POPC      H14Y           53.7719295441       41.4704020045       41.3991269008  MEMB      88              0.0000000000
     11803        94  POPC      C315           54.7264903669       43.2032302437       42.1376506394  MEMB      88              0.0000000000
     11804        94  POPC      H15X           53.7689820961       43.7034566833       42.4062967712  MEMB      88              0.0000000000
     11805        94  POPC      H15Y           55.4417639198       43.9836843167       41.7992258291  MEMB      88              0.0000000000
     11806        94  POPC      C316           55.2899081994       42.4653247371       43.3617425670  MEMB      88              0.0000000000
     11807        94  POPC      H16X           56.0361939354       41.7047602245       43.0516163669  MEMB      88              0.0000000000
     11808        94  POPC      H16Y           54.4785769789       41.9462299697       43.9150490920  MEMB      88              0.0000000000
     11809        94  POPC      H16Z           55.8067113242       43.1538997698       44.0523399135  MEMB      88              0.0000000000
     11810        95  POPC      N              11.2632161990       37.1785089061       21.7856162884  MEMB      89              0.0000000000
     11811        95  POPC      C12             9.8853497748       37.7975857544       21.9654964854  MEMB      89              0.0000000000
     11812        95  POPC      H12A            9.3366351116       37.6926828749       21.0336459418  MEMB      89              0.0000000000
     11813        95  POPC      H12B            9.9956135932       38.8604139509       22.1357610413  MEMB      89              0.0000000000
     11814        95  POPC      C13            11.1559186629       35.6859795081       21.8155468109  MEMB      89              0.0000000000
     11815        95  POPC      H13A           10.5278470386       35.3058663195       21.0225318043  MEMB      89              0.0000000000
     11816        95  POPC      H13B           12.1190154428       35.2046266784       21.8196866502  MEMB      89              0.0000000000
     11817        95  POPC      H13C           10.6665545188       35.3929718196       22.7509181065  MEMB      89              0.0000000000
     11818        95  POPC      C14            11.8001838017       37.6263759795       20.4871681056  MEMB      89              0.0000000000
     11819        95  POPC      H14A           11.6455159386       38.6925399257       20.3222554152  MEMB      89              0.0000000000
     11820        95  POPC      H14B           12.8543002249       37.3929211242       20.3693836334  MEMB      89              0.0000000000
     11821        95  POPC      H14C           11.2795840877       37.1031803754       19.6841173676  MEMB      89              0.0000000000
     11822        95  POPC      C15            12.1757868067       37.6038998930       22.8987342118  MEMB      89              0.0000000000
     11823        95  POPC      H15A           11.7538844815       37.2408451454       23.8389391066  MEMB      89              0.0000000000
     11824        95  POPC      H15B           12.2230055012       38.6785922220       22.9522171012  MEMB      89              0.0000000000
     11825        95  POPC      H15C           13.1683610894       37.1843891765       22.8057613851  MEMB      89              0.0000000000
     11826        95  POPC      C11             8.9772755297       37.2469913382       23.0833598578  MEMB      89              0.0000000000
     11827        95  POPC      H11A            8.6558753065       36.2137721689       22.8042014543  MEMB      89              0.0000000000
     11828        95  POPC      H11B            8.0473572239       37.8705066781       23.0982844654  MEMB      89              0.0000000000
     11829        95  POPC      P               9.7739623616       36.0386939351       25.3041399099  MEMB      89              0.0000000000
     11830        95  POPC      O13            10.8189916857       36.3681798965       26.2814618476  MEMB      89              0.0000000000
     11831        95  POPC      O14            10.0153332429       34.8690135686       24.4283108281  MEMB      89              0.0000000000
     11832        95  POPC      O12             9.6068930014       37.3048431211       24.3650224275  MEMB      89              0.0000000000
     11833        95  POPC      O11             8.3839396135       35.8071563782       26.0078302057  MEMB      89              0.0000000000
     11834        95  POPC      C1              7.1124027135       36.2168481038       25.5107351014  MEMB      89              0.0000000000
     11835        95  POPC      HA              6.4093258284       35.3760055336       25.6542367191  MEMB      89              0.0000000000
     11836        95  POPC      HB              7.1017604220       36.4171258900       24.4232584871  MEMB      89              0.0000000000
     11837        95  POPC      C2              6.5583800985       37.4331578508       26.2903850072  MEMB      89              0.0000000000
     11838        95  POPC      HS              5.6500727397       37.8058042884       25.7679264737  MEMB      89              0.0000000000
     11839        95  POPC      O21             7.5640070972       38.4648851791       26.2826634933  MEMB      89              0.0000000000
     11840        95  POPC      C21             7.9064581575       39.1635097818       27.3421290716  MEMB      89              0.0000000000
     11841        95  POPC      O22             7.2869571419       39.3229217118       28.3746728978  MEMB      89              0.0000000000
     11842        95  POPC      C22             9.3539581960       39.6140113173       27.2268950952  MEMB      89              0.0000000000
     11843        95  POPC      H2R             9.4031038228       40.7053448132       27.4024252184  MEMB      89              0.0000000000
     11844        95  POPC      H2S             9.7210523390       39.3832997078       26.2043038115  MEMB      89              0.0000000000
     11845        95  POPC      C3              6.1641389383       36.9225992766       27.7122485699  MEMB      89              0.0000000000
     11846        95  POPC      HX              5.3847595216       36.1386776694       27.5906908858  MEMB      89              0.0000000000
     11847        95  POPC      HY              5.6716968220       37.7551297163       28.2280461355  MEMB      89              0.0000000000
     11848        95  POPC      O31             7.3121158012       36.4965438172       28.4820422407  MEMB      89              0.0000000000
     11849        95  POPC      C31             7.4790998838       35.1871963541       28.5848047437  MEMB      89              0.0000000000
     11850        95  POPC      O32             6.5999150770       34.3516586085       28.4431747804  MEMB      89              0.0000000000
     11851        95  POPC      C32             8.9382304167       34.8843548256       28.9394986616  MEMB      89              0.0000000000
     11852        95  POPC      H2X             9.5819471022       35.6860354916       28.5244536896  MEMB      89              0.0000000000
     11853        95  POPC      H2Y             9.2014990501       33.9454683213       28.4095814463  MEMB      89              0.0000000000
     11854        95  POPC      C23            10.1933567189       38.8499600501       28.2798297441  MEMB      89              0.0000000000
     11855        95  POPC      H3R            11.2443855757       38.8987333943       27.9463475535  MEMB      89              0.0000000000
     11856        95  POPC      H3S             9.9178247890       37.7709570687       28.2510987193  MEMB      89              0.0000000000
     11857        95  POPC      C24            10.0842196980       39.3597204873       29.7346856673  MEMB      89              0.0000000000
     11858        95  POPC      H4R             9.0142029626       39.3803060500       30.0360925169  MEMB      89              0.0000000000
     11859        95  POPC      H4S            10.4631189857       40.4002096702       29.8049381476  MEMB      89              0.0000000000
     11860        95  POPC      C25            10.8302384620       38.4501478707       30.7252270583  MEMB      89              0.0000000000
     11861        95  POPC      H5R            11.8107363453       38.8839967567       31.0010598344  MEMB      89              0.0000000000
     11862        95  POPC      H5S            11.0521261281       37.5046290412       30.1714137330  MEMB      89              0.0000000000
     11863        95  POPC      C26            10.0446857860       38.0358294108       31.9849728681  MEMB      89              0.0000000000
     11864        95  POPC      H6R            10.4019161539       37.0041630877       32.1865600655  MEMB      89              0.0000000000
     11865        95  POPC      H6S             8.9548288179       37.9683752427       31.7921703136  MEMB      89              0.0000000000
     11866        95  POPC      C27            10.3557413384       38.8526876376       33.2521516642  MEMB      89              0.0000000000
     11867        95  POPC      H7R             9.7202289084       39.7597386706       33.2875107249  MEMB      89              0.0000000000
     11868        95  POPC      H7S            11.4040624395       39.1819453057       33.1467875296  MEMB      89              0.0000000000
     11869        95  POPC      C28            10.2236009556       38.0250587697       34.5549324609  MEMB      89              0.0000000000
     11870        95  POPC      H8R            10.7190863215       37.0507400787       34.3744913783  MEMB      89              0.0000000000
     11871        95  POPC      H8S             9.1468884152       37.7923796872       34.7033858177  MEMB      89              0.0000000000
     11872        95  POPC      C29            10.8671350027       38.5903871253       35.8013733931  MEMB      89              0.0000000000
     11873        95  POPC      H91            11.9624594552       38.4727204354       35.8378350013  MEMB      89              0.0000000000
     11874        95  POPC      C210           10.2570128348       39.2305646597       36.8185296748  MEMB      89              0.0000000000
     11875        95  POPC      H101           10.8563785059       39.5472113496       37.6877150901  MEMB      89              0.0000000000
     11876        95  POPC      C211            8.7809043319       39.5198296653       36.9117227867  MEMB      89              0.0000000000
     11877        95  POPC      H11R            8.2043500158       38.8892336877       36.2009848628  MEMB      89              0.0000000000
     11878        95  POPC      H11S            8.6106234271       40.5771610257       36.6146064813  MEMB      89              0.0000000000
     11879        95  POPC      C212            8.1161166403       39.3586860832       38.2893731891  MEMB      89              0.0000000000
     11880        95  POPC      H12R            8.3231059886       38.3578825973       38.7214527261  MEMB      89              0.0000000000
     11881        95  POPC      H12S            7.0139585681       39.4292802602       38.1335369388  MEMB      89              0.0000000000
     11882        95  POPC      C213            8.5084250720       40.4582160689       39.2786445992  MEMB      89              0.0000000000
     11883        95  POPC      H13R            8.5884358371       41.4315773337       38.7452628829  MEMB      89              0.0000000000
     11884        95  POPC      H13S            9.5151460096       40.2287033230       39.6918317514  MEMB      89              0.0000000000
     11885        95  POPC      C214            7.4804323592       40.6190698333       40.4064981688  MEMB      89              0.0000000000
     11886        95  POPC      H14R            7.0521760188       39.6295692717       40.6832595389  MEMB      89              0.0000000000
     11887        95  POPC      H14S            6.6440530240       41.2565249769       40.0370301566  MEMB      89              0.0000000000
     11888        95  POPC      C215            8.1094255244       41.2517624169       41.6469939263  MEMB      89              0.0000000000
     11889        95  POPC      H15R            7.3270530489       41.7423737064       42.2684117569  MEMB      89              0.0000000000
     11890        95  POPC      H15S            8.8181095971       42.0441184046       41.3120435557  MEMB      89              0.0000000000
     11891        95  POPC      C216            8.8511024905       40.2109126099       42.4939798336  MEMB      89              0.0000000000
     11892        95  POPC      H16R            9.2073322895       39.3827571562       41.8394074133  MEMB      89              0.0000000000
     11893        95  POPC      H16S            8.1384970736       39.7662694129       43.2245434378  MEMB      89              0.0000000000
     11894        95  POPC      C217           10.0583082880       40.7851224827       43.2371847449  MEMB      89              0.0000000000
     11895        95  POPC      H17R           10.8063331794       41.1596955978       42.5002227549  MEMB      89              0.0000000000
     11896        95  POPC      H17S           10.5237489035       39.9632438166       43.8285112726  MEMB      89              0.0000000000
     11897        95  POPC      C218            9.7026505122       41.8948886340       44.2048170216  MEMB      89              0.0000000000
     11898        95  POPC      H18R            8.9961364262       41.4846018557       44.9519949916  MEMB      89              0.0000000000
     11899        95  POPC      H18S            9.2109825011       42.7370966618       43.6746266090  MEMB      89              0.0000000000
     11900        95  POPC      H18T           10.6077302493       42.2690079093       44.7298317877  MEMB      89              0.0000000000
     11901        95  POPC      C33             9.1945063269       34.7317368663       30.4554296653  MEMB      89              0.0000000000
     11902        95  POPC      H3X             8.5040085888       33.9532959517       30.8478482194  MEMB      89              0.0000000000
     11903        95  POPC      H3Y             8.9622467682       35.6800402607       30.9863113806  MEMB      89              0.0000000000
     11904        95  POPC      C34            10.6471014536       34.3120565809       30.7511197937  MEMB      89              0.0000000000
     11905        95  POPC      H4X            11.3372853930       35.1737247937       30.6217158842  MEMB      89              0.0000000000
     11906        95  POPC      H4Y            10.9356777050       33.5557065163       29.9865920366  MEMB      89              0.0000000000
     11907        95  POPC      C35            10.8388545301       33.6728242171       32.1368857467  MEMB      89              0.0000000000
     11908        95  POPC      H5X            11.7464693225       33.0273923171       32.1344521696  MEMB      89              0.0000000000
     11909        95  POPC      H5Y             9.9626709850       33.0267140022       32.3453852383  MEMB      89              0.0000000000
     11910        95  POPC      C36            10.9613876775       34.6893287605       33.2713348219  MEMB      89              0.0000000000
     11911        95  POPC      H6X            10.0469613077       35.3191456945       33.2678360717  MEMB      89              0.0000000000
     11912        95  POPC      H6Y            11.8404553122       35.3427693755       33.0731836394  MEMB      89              0.0000000000
     11913        95  POPC      C37            11.1055155707       34.0593705360       34.6646717939  MEMB      89              0.0000000000
     11914        95  POPC      H7X            11.4237595001       34.8460814210       35.3848036129  MEMB      89              0.0000000000
     11915        95  POPC      H7Y            11.9063803199       33.2879264342       34.6323483052  MEMB      89              0.0000000000
     11916        95  POPC      C38             9.8045469181       33.4282918433       35.1824125822  MEMB      89              0.0000000000
     11917        95  POPC      H8X            10.0260844190       32.8452797594       36.1043330289  MEMB      89              0.0000000000
     11918        95  POPC      H8Y             9.4273865065       32.7050795794       34.4286460099  MEMB      89              0.0000000000
     11919        95  POPC      C39             8.6953561247       34.4463313685       35.4956407307  MEMB      89              0.0000000000
     11920        95  POPC      H9X             7.7590345190       34.1103699787       34.9945212504  MEMB      89              0.0000000000
     11921        95  POPC      H9Y             8.9440585720       35.4489936662       35.0892751124  MEMB      89              0.0000000000
     11922        95  POPC      C310            8.4194271933       34.5717521245       36.9973378448  MEMB      89              0.0000000000
     11923        95  POPC      H10X            8.1887650037       33.5577695566       37.3954411494  MEMB      89              0.0000000000
     11924        95  POPC      H10Y            7.5178256007       35.2081703417       37.1470458375  MEMB      89              0.0000000000
     11925        95  POPC      C311            9.5844868724       35.1663798461       37.8065612917  MEMB      89              0.0000000000
     11926        95  POPC      H11X            9.6051383326       36.2685991026       37.6460330371  MEMB      89              0.0000000000
     11927        95  POPC      H11Y           10.5524724063       34.7596500951       37.4463576768  MEMB      89              0.0000000000
     11928        95  POPC      C312            9.4609020010       34.8661260180       39.3081040811  MEMB      89              0.0000000000
     11929        95  POPC      H12X           10.2882093677       35.3756912005       39.8508193649  MEMB      89              0.0000000000
     11930        95  POPC      H12Y            9.5605540332       33.7710836024       39.4770975810  MEMB      89              0.0000000000
     11931        95  POPC      C313            8.1151017035       35.3473909832       39.8551846822  MEMB      89              0.0000000000
     11932        95  POPC      H13X            7.2823414504       34.8181516113       39.3431300254  MEMB      89              0.0000000000
     11933        95  POPC      H13Y            8.0296258000       36.4303058054       39.6135854422  MEMB      89              0.0000000000
     11934        95  POPC      C314            7.9279937912       35.1786601496       41.3632069226  MEMB      89              0.0000000000
     11935        95  POPC      H14X            8.8838168821       35.4145038586       41.8729326639  MEMB      89              0.0000000000
     11936        95  POPC      H14Y            7.6685295477       34.1202655040       41.5919870434  MEMB      89              0.0000000000
     11937        95  POPC      C315            6.8339041792       36.1195456238       41.8859003274  MEMB      89              0.0000000000
     11938        95  POPC      H15X            7.2045056164       37.1679304014       41.8033613744  MEMB      89              0.0000000000
     11939        95  POPC      H15Y            6.6505480802       35.9074150313       42.9638143927  MEMB      89              0.0000000000
     11940        95  POPC      C316            5.5196544617       36.0040494673       41.1172399875  MEMB      89              0.0000000000
     11941        95  POPC      H16X            4.7424409822       36.6538891668       41.5699904257  MEMB      89              0.0000000000
     11942        95  POPC      H16Y            5.1797181696       34.9521295822       41.1456579782  MEMB      89              0.0000000000
     11943        95  POPC      H16Z            5.6369165990       36.2907458175       40.0520226395  MEMB      89              0.0000000000
     11944        96  POPC      N              22.9964544183       53.3557427527       22.9494093015  MEMB      90              0.0000000000
     11945        96  POPC      C12            23.1828080274       54.0811342925       24.2894783005  MEMB      90              0.0000000000
     11946        96  POPC      H12A           23.4389330830       53.3808523397       25.0706130659  MEMB      90              0.0000000000
     11947        96  POPC      H12B           22.2308173135       54.5100570887       24.6050493880  MEMB      90              0.0000000000
     11948        96  POPC      C13            21.8019184370       53.8863639141       22.2100405147  MEMB      90              0.0000000000
     11949        96  POPC      H13A           21.8383555782       54.9786264996       22.1434600870  MEMB      90              0.0000000000
     11950        96  POPC      H13B           21.7816267267       53.5549616714       21.1744491176  MEMB      90              0.0000000000
     11951        96  POPC      H13C           20.8577049487       53.6238873224       22.6589859887  MEMB      90              0.0000000000
     11952        96  POPC      C14            24.2066995352       53.6534768320       22.1051862325  MEMB      90              0.0000000000
     11953        96  POPC      H14A           24.3502541289       54.7455000678       22.1438225080  MEMB      90              0.0000000000
     11954        96  POPC      H14B           25.1078307584       53.2192318823       22.4990807721  MEMB      90              0.0000000000
     11955        96  POPC      H14C           24.0804279878       53.3745713387       21.0748240557  MEMB      90              0.0000000000
     11956        96  POPC      C15            22.7775402722       51.8969500604       23.1802028361  MEMB      90              0.0000000000
     11957        96  POPC      H15A           22.3810427868       51.4442106361       22.2771617107  MEMB      90              0.0000000000
     11958        96  POPC      H15B           22.0407194196       51.7526289552       23.9661947598  MEMB      90              0.0000000000
     11959        96  POPC      H15C           23.7007920974       51.3988852898       23.4316632447  MEMB      90              0.0000000000
     11960        96  POPC      C11            24.1909984562       55.2657908431       24.3798368824  MEMB      90              0.0000000000
     11961        96  POPC      H11A           25.2336866228       54.9036526799       24.2481276810  MEMB      90              0.0000000000
     11962        96  POPC      H11B           24.1455276282       55.6919035861       25.4123565493  MEMB      90              0.0000000000
     11963        96  POPC      P              22.6451937101       57.2052397899       23.5493652725  MEMB      90              0.0000000000
     11964        96  POPC      O13            21.8404267971       57.1103079501       22.3062681556  MEMB      90              0.0000000000
     11965        96  POPC      O14            23.1145890206       58.5648907411       23.8813821698  MEMB      90              0.0000000000
     11966        96  POPC      O12            23.9180669246       56.2719502017       23.4101390832  MEMB      90              0.0000000000
     11967        96  POPC      O11            21.8996296027       56.5183071662       24.7806193556  MEMB      90              0.0000000000
     11968        96  POPC      C1             20.5118630742       56.1590430484       24.7139293486  MEMB      90              0.0000000000
     11969        96  POPC      HA             20.2860047238       55.5153273741       23.8384169819  MEMB      90              0.0000000000
     11970        96  POPC      HB             19.9063696883       57.0882627923       24.5857940587  MEMB      90              0.0000000000
     11971        96  POPC      C2             19.9865047250       55.4703061184       26.0286019642  MEMB      90              0.0000000000
     11972        96  POPC      HS             18.8874043262       55.6609567144       26.0771581619  MEMB      90              0.0000000000
     11973        96  POPC      O21            20.6436889083       56.0028326867       27.1925164331  MEMB      90              0.0000000000
     11974        96  POPC      C21            20.4477296230       57.2931262932       27.3874250075  MEMB      90              0.0000000000
     11975        96  POPC      O22            19.5495091294       57.9624582953       26.8939623104  MEMB      90              0.0000000000
     11976        96  POPC      C22            21.4659053773       57.8092501472       28.4056332189  MEMB      90              0.0000000000
     11977        96  POPC      H2R            21.8265498825       56.9639568758       29.0235789183  MEMB      90              0.0000000000
     11978        96  POPC      H2S            20.9153095854       58.5099843768       29.0664847421  MEMB      90              0.0000000000
     11979        96  POPC      C3             20.1360546427       53.9075304141       26.0607141357  MEMB      90              0.0000000000
     11980        96  POPC      HX             19.9670574823       53.5182677622       25.0343948663  MEMB      90              0.0000000000
     11981        96  POPC      HY             19.2947904169       53.4904389981       26.6684437976  MEMB      90              0.0000000000
     11982        96  POPC      O31            21.4303978240       53.4561043387       26.5383430662  MEMB      90              0.0000000000
     11983        96  POPC      C31            21.4702064462       53.2601697534       27.8738906896  MEMB      90              0.0000000000
     11984        96  POPC      O32            20.5119026278       53.2735081518       28.6172812524  MEMB      90              0.0000000000
     11985        96  POPC      C32            22.9259003199       53.0271354247       28.2824251587  MEMB      90              0.0000000000
     11986        96  POPC      H2X            23.5659590621       53.7780454913       27.7729269238  MEMB      90              0.0000000000
     11987        96  POPC      H2Y            23.2229286194       52.0158119296       27.9404513575  MEMB      90              0.0000000000
     11988        96  POPC      C23            22.6619406123       58.5494180891       27.7533637723  MEMB      90              0.0000000000
     11989        96  POPC      H3R            22.2627496681       59.2397246390       26.9705075328  MEMB      90              0.0000000000
     11990        96  POPC      H3S            23.3311700373       57.8305185301       27.2322354681  MEMB      90              0.0000000000
     11991        96  POPC      C24            23.4498711896       59.4081110028       28.7622660007  MEMB      90              0.0000000000
     11992        96  POPC      H4R            22.7087851292       60.0085424190       29.3343016774  MEMB      90              0.0000000000
     11993        96  POPC      H4S            24.0978729344       60.1275711320       28.2133493417  MEMB      90              0.0000000000
     11994        96  POPC      C25            24.3033879171       58.6292721598       29.7776051342  MEMB      90              0.0000000000
     11995        96  POPC      H5R            25.1780483191       58.1806545527       29.2582003585  MEMB      90              0.0000000000
     11996        96  POPC      H5S            23.6921907805       57.7943489424       30.1891610519  MEMB      90              0.0000000000
     11997        96  POPC      C26            24.7669220439       59.5054268726       30.9610528700  MEMB      90              0.0000000000
     11998        96  POPC      H6R            23.8654367967       59.9470786310       31.4427299739  MEMB      90              0.0000000000
     11999        96  POPC      H6S            25.3894931875       60.3492895420       30.5917725636  MEMB      90              0.0000000000
     12000        96  POPC      C27            25.5471055164       58.7128614200       32.0232685008  MEMB      90              0.0000000000
     12001        96  POPC      H7R            26.5601446715       58.4843667634       31.6172979108  MEMB      90              0.0000000000
     12002        96  POPC      H7S            25.0458103048       57.7394698142       32.1929520446  MEMB      90              0.0000000000
     12003        96  POPC      C28            25.7309953644       59.4276565818       33.3846848922  MEMB      90              0.0000000000
     12004        96  POPC      H8R            26.3535043004       60.3314894675       33.1938506712  MEMB      90              0.0000000000
     12005        96  POPC      H8S            26.3567561792       58.7503760262       34.0021119143  MEMB      90              0.0000000000
     12006        96  POPC      C29            24.5290361800       59.8367263657       34.2091704398  MEMB      90              0.0000000000
     12007        96  POPC      H91            24.4828411182       60.9202035660       34.3991083575  MEMB      90              0.0000000000
     12008        96  POPC      C210           23.5587024041       59.0711585176       34.7549437551  MEMB      90              0.0000000000
     12009        96  POPC      H101           22.7937274500       59.5713642572       35.3666232844  MEMB      90              0.0000000000
     12010        96  POPC      C211           23.3850737052       57.5739452741       34.6987182933  MEMB      90              0.0000000000
     12011        96  POPC      H11R           23.6585088714       57.2013126432       33.6895275890  MEMB      90              0.0000000000
     12012        96  POPC      H11S           22.3131543992       57.3122431086       34.8480334828  MEMB      90              0.0000000000
     12013        96  POPC      C212           24.2196797172       56.7962702953       35.7359589700  MEMB      90              0.0000000000
     12014        96  POPC      H12R           25.2861390445       57.0458481894       35.5748260300  MEMB      90              0.0000000000
     12015        96  POPC      H12S           24.1261187165       55.7033789505       35.5503012655  MEMB      90              0.0000000000
     12016        96  POPC      C213           23.8490675407       57.0438071937       37.2082045690  MEMB      90              0.0000000000
     12017        96  POPC      H13R           22.8725270948       56.5639115482       37.4169443732  MEMB      90              0.0000000000
     12018        96  POPC      H13S           23.7180378556       58.1301629886       37.4031531991  MEMB      90              0.0000000000
     12019        96  POPC      C214           24.9191560168       56.4806976623       38.1574029338  MEMB      90              0.0000000000
     12020        96  POPC      H14R           25.4003452571       57.3106877952       38.7093609864  MEMB      90              0.0000000000
     12021        96  POPC      H14S           25.7155089577       55.9924231098       37.5500552237  MEMB      90              0.0000000000
     12022        96  POPC      C215           24.4059181819       55.4585832314       39.1768544216  MEMB      90              0.0000000000
     12023        96  POPC      H15R           23.9139845486       54.6284932062       38.6255236592  MEMB      90              0.0000000000
     12024        96  POPC      H15S           23.6455530287       55.9227596444       39.8442437024  MEMB      90              0.0000000000
     12025        96  POPC      C216           25.5559397087       54.8849200884       40.0147729740  MEMB      90              0.0000000000
     12026        96  POPC      H16R           25.8957181555       55.6437519012       40.7539636106  MEMB      90              0.0000000000
     12027        96  POPC      H16S           26.4178867141       54.6698359976       39.3425928234  MEMB      90              0.0000000000
     12028        96  POPC      C217           25.1775825777       53.5879524040       40.7328023861  MEMB      90              0.0000000000
     12029        96  POPC      H17R           24.8734465003       52.8326233289       39.9723710383  MEMB      90              0.0000000000
     12030        96  POPC      H17S           24.2949424037       53.7767477150       41.3804360976  MEMB      90              0.0000000000
     12031        96  POPC      C218           26.3127357741       53.0216588482       41.5843749916  MEMB      90              0.0000000000
     12032        96  POPC      H18R           27.2142814922       52.8316150158       40.9631470469  MEMB      90              0.0000000000
     12033        96  POPC      H18S           26.0050146922       52.0637187538       42.0558428462  MEMB      90              0.0000000000
     12034        96  POPC      H18T           26.5907055038       53.7387288056       42.3876567092  MEMB      90              0.0000000000
     12035        96  POPC      C33            23.1246909085       53.1376060852       29.8063474013  MEMB      90              0.0000000000
     12036        96  POPC      H3X            24.0942084583       52.6559746455       30.0711012993  MEMB      90              0.0000000000
     12037        96  POPC      H3Y            22.3226969298       52.5857261090       30.3456923313  MEMB      90              0.0000000000
     12038        96  POPC      C34            23.1829821555       54.5977769678       30.2674036246  MEMB      90              0.0000000000
     12039        96  POPC      H4X            22.1580304873       55.0322327095       30.2803745178  MEMB      90              0.0000000000
     12040        96  POPC      H4Y            23.7761916640       55.1790270784       29.5224795992  MEMB      90              0.0000000000
     12041        96  POPC      C35            23.8580908751       54.7952365631       31.6304984705  MEMB      90              0.0000000000
     12042        96  POPC      H5X            24.0461672394       55.8886165322       31.7370935472  MEMB      90              0.0000000000
     12043        96  POPC      H5Y            24.8479702300       54.2981351964       31.6594006478  MEMB      90              0.0000000000
     12044        96  POPC      C36            23.0116717368       54.3781576430       32.8396863305  MEMB      90              0.0000000000
     12045        96  POPC      H6X            21.9767508403       54.7628747026       32.7048329672  MEMB      90              0.0000000000
     12046        96  POPC      H6Y            23.4471725551       54.8892034532       33.7266522246  MEMB      90              0.0000000000
     12047        96  POPC      C37            22.9871407692       52.8787667830       33.1750522167  MEMB      90              0.0000000000
     12048        96  POPC      H7X            24.0110002650       52.4545226186       33.0722217069  MEMB      90              0.0000000000
     12049        96  POPC      H7Y            22.3263121647       52.3469742824       32.4588064101  MEMB      90              0.0000000000
     12050        96  POPC      C38            22.4829589604       52.6159055148       34.6072521089  MEMB      90              0.0000000000
     12051        96  POPC      H8X            23.2481873101       52.9967990081       35.3205272035  MEMB      90              0.0000000000
     12052        96  POPC      H8Y            22.3839801062       51.5191195296       34.7701971963  MEMB      90              0.0000000000
     12053        96  POPC      C39            21.1391418551       53.3031906566       34.9031136244  MEMB      90              0.0000000000
     12054        96  POPC      H9X            20.3730240657       52.9133996277       34.1980336102  MEMB      90              0.0000000000
     12055        96  POPC      H9Y            21.2262498218       54.3970478034       34.7170675858  MEMB      90              0.0000000000
     12056        96  POPC      C310           20.6473139283       53.1474235693       36.3502058723  MEMB      90              0.0000000000
     12057        96  POPC      H10X           20.4983459917       52.0753308873       36.6021630705  MEMB      90              0.0000000000
     12058        96  POPC      H10Y           19.6535817748       53.6470461032       36.4138867577  MEMB      90              0.0000000000
     12059        96  POPC      C311           21.5918012090       53.7976634027       37.3705150389  MEMB      90              0.0000000000
     12060        96  POPC      H11X           22.0895426579       54.6722692373       36.8979423572  MEMB      90              0.0000000000
     12061        96  POPC      H11Y           22.3877097512       53.0673687463       37.6391025144  MEMB      90              0.0000000000
     12062        96  POPC      C312           20.8768298352       54.2889176491       38.6387439824  MEMB      90              0.0000000000
     12063        96  POPC      H12X           21.6319804730       54.4162644756       39.4473248899  MEMB      90              0.0000000000
     12064        96  POPC      H12Y           20.1546373389       53.5124491217       38.9699985982  MEMB      90              0.0000000000
     12065        96  POPC      C313           20.1593184701       55.6363538427       38.4311463388  MEMB      90              0.0000000000
     12066        96  POPC      H13X           19.4164604177       55.5331903666       37.6116458897  MEMB      90              0.0000000000
     12067        96  POPC      H13Y           20.9014851333       56.3980593003       38.1122892649  MEMB      90              0.0000000000
     12068        96  POPC      C314           19.4454304259       56.1593680546       39.6842521707  MEMB      90              0.0000000000
     12069        96  POPC      H14X           20.1498534236       56.1865182500       40.5406294272  MEMB      90              0.0000000000
     12070        96  POPC      H14Y           18.6276498130       55.4510036734       39.9393606295  MEMB      90              0.0000000000
     12071        96  POPC      C315           18.8534704111       57.5624064753       39.5156513733  MEMB      90              0.0000000000
     12072        96  POPC      H15X           17.9019013804       57.6220110053       40.0947393670  MEMB      90              0.0000000000
     12073        96  POPC      H15Y           18.6028401861       57.7299465508       38.4445772734  MEMB      90              0.0000000000
     12074        96  POPC      C316           19.7875864723       58.6621583783       40.0144287001  MEMB      90              0.0000000000
     12075        96  POPC      H16X           19.9403137931       58.5782875945       41.1132983631  MEMB      90              0.0000000000
     12076        96  POPC      H16Y           19.3549638680       59.6581319036       39.8008761345  MEMB      90              0.0000000000
     12077        96  POPC      H16Z           20.7787654041       58.6006037912       39.5173465559  MEMB      90              0.0000000000
     12078        97  POPC      N              35.5878494522       54.7941569737       23.0460803689  MEMB      91              0.0000000000
     12079        97  POPC      C12            36.2374002614       56.1593006764       22.7571803250  MEMB      91              0.0000000000
     12080        97  POPC      H12A           35.4553160432       56.9006721702       22.5796723658  MEMB      91              0.0000000000
     12081        97  POPC      H12B           36.7980221297       56.0888980324       21.8301323536  MEMB      91              0.0000000000
     12082        97  POPC      C13            34.5776411110       54.9199305031       24.1424382155  MEMB      91              0.0000000000
     12083        97  POPC      H13A           34.0663532280       53.9676561163       24.3022705223  MEMB      91              0.0000000000
     12084        97  POPC      H13B           35.0458324133       55.2471698031       25.0551681545  MEMB      91              0.0000000000
     12085        97  POPC      H13C           33.8079007408       55.6306347299       23.8658564063  MEMB      91              0.0000000000
     12086        97  POPC      C14            34.8570653801       54.3036226508       21.8356578569  MEMB      91              0.0000000000
     12087        97  POPC      H14A           35.5136593474       54.1125004454       20.9940898085  MEMB      91              0.0000000000
     12088        97  POPC      H14B           34.3157541424       53.3940262957       22.0618575551  MEMB      91              0.0000000000
     12089        97  POPC      H14C           34.0950720369       55.0164345950       21.5160009359  MEMB      91              0.0000000000
     12090        97  POPC      C15            36.6250650950       53.7858123479       23.4376550295  MEMB      91              0.0000000000
     12091        97  POPC      H15A           37.2921266839       53.5851001300       22.6048403973  MEMB      91              0.0000000000
     12092        97  POPC      H15B           36.1683239429       52.8629347695       23.7743432069  MEMB      91              0.0000000000
     12093        97  POPC      H15C           37.2558979953       54.2153482609       24.2196594137  MEMB      91              0.0000000000
     12094        97  POPC      C11            37.2182348839       56.7704078657       23.8055213533  MEMB      91              0.0000000000
     12095        97  POPC      H11A           36.6882990459       56.8979069383       24.7756173534  MEMB      91              0.0000000000
     12096        97  POPC      H11B           37.4773248875       57.8053492419       23.4715319210  MEMB      91              0.0000000000
     12097        97  POPC      P              39.8309055478       56.3720117426       23.4962745184  MEMB      91              0.0000000000
     12098        97  POPC      O13            40.1143011218       57.8088337716       23.6881336698  MEMB      91              0.0000000000
     12099        97  POPC      O14            40.0659406741       55.8319835012       22.1468074423  MEMB      91              0.0000000000
     12100        97  POPC      O12            38.3750662328       55.9582145530       24.0007099906  MEMB      91              0.0000000000
     12101        97  POPC      O11            40.7426659404       55.5300514188       24.4605206883  MEMB      91              0.0000000000
     12102        97  POPC      C1             41.9679059298       56.0589370066       24.9856869761  MEMB      91              0.0000000000
     12103        97  POPC      HA             42.3201034257       56.9863116775       24.4703040447  MEMB      91              0.0000000000
     12104        97  POPC      HB             42.7782643877       55.3118588533       24.8312228603  MEMB      91              0.0000000000
     12105        97  POPC      C2             41.8829446884       56.3240162286       26.5207090970  MEMB      91              0.0000000000
     12106        97  POPC      HS             42.8473581551       55.9953123133       26.9707806175  MEMB      91              0.0000000000
     12107        97  POPC      O21            40.7902706029       55.6432143352       27.1518716922  MEMB      91              0.0000000000
     12108        97  POPC      C21            40.8339659299       54.3292874415       27.0606999602  MEMB      91              0.0000000000
     12109        97  POPC      O22            41.8083565672       53.6771481721       26.7190842964  MEMB      91              0.0000000000
     12110        97  POPC      C22            39.4934018124       53.7356169540       27.5421226540  MEMB      91              0.0000000000
     12111        97  POPC      H2R            39.7197758014       53.1236763469       28.4405366786  MEMB      91              0.0000000000
     12112        97  POPC      H2S            39.1345748139       53.0577119240       26.7437474032  MEMB      91              0.0000000000
     12113        97  POPC      C3             41.7204409634       57.8254933639       26.8405557008  MEMB      91              0.0000000000
     12114        97  POPC      HX             40.6846769208       58.1204066903       26.5355168502  MEMB      91              0.0000000000
     12115        97  POPC      HY             42.4330952184       58.3996519900       26.2171227296  MEMB      91              0.0000000000
     12116        97  POPC      O31            42.0250353799       58.0268212308       28.2382069229  MEMB      91              0.0000000000
     12117        97  POPC      C31            41.0433857193       58.4918676627       28.9750535658  MEMB      91              0.0000000000
     12118        97  POPC      O32            40.0790313108       59.1225701623       28.5889876989  MEMB      91              0.0000000000
     12119        97  POPC      C32            41.2828805778       58.0977507632       30.4284412935  MEMB      91              0.0000000000
     12120        97  POPC      H2X            40.4213974373       58.4298520098       31.0407795960  MEMB      91              0.0000000000
     12121        97  POPC      H2Y            42.1727573259       58.6873553008       30.7374951049  MEMB      91              0.0000000000
     12122        97  POPC      C23            38.4004531153       54.8021197307       27.8656066957  MEMB      91              0.0000000000
     12123        97  POPC      H3R            38.0559978523       55.2548697684       26.9087784130  MEMB      91              0.0000000000
     12124        97  POPC      H3S            38.8384731041       55.6365782129       28.4453344178  MEMB      91              0.0000000000
     12125        97  POPC      C24            37.1885111876       54.2698861086       28.6586571940  MEMB      91              0.0000000000
     12126        97  POPC      H4R            37.4087356514       53.2300636269       28.9935130298  MEMB      91              0.0000000000
     12127        97  POPC      H4S            36.3296071350       54.2054188815       27.9542260126  MEMB      91              0.0000000000
     12128        97  POPC      C25            36.7578442023       55.0793135027       29.9105216207  MEMB      91              0.0000000000
     12129        97  POPC      H5R            37.4805759725       54.9366461701       30.7339289643  MEMB      91              0.0000000000
     12130        97  POPC      H5S            35.7928726212       54.6524054971       30.2613226744  MEMB      91              0.0000000000
     12131        97  POPC      C26            36.5878387120       56.6025349128       29.7782060984  MEMB      91              0.0000000000
     12132        97  POPC      H6R            35.9681286032       56.8093039983       28.8769745599  MEMB      91              0.0000000000
     12133        97  POPC      H6S            37.5688388259       57.0990882682       29.6216972492  MEMB      91              0.0000000000
     12134        97  POPC      C27            35.8766193486       57.2401639169       31.0002311911  MEMB      91              0.0000000000
     12135        97  POPC      H7R            34.8667527110       56.7706111664       31.0513312914  MEMB      91              0.0000000000
     12136        97  POPC      H7S            35.7189760300       58.3228273785       30.7960649126  MEMB      91              0.0000000000
     12137        97  POPC      C28            36.5228788399       57.0726653957       32.4071685965  MEMB      91              0.0000000000
     12138        97  POPC      H8R            36.7981098878       56.0095726647       32.5699982264  MEMB      91              0.0000000000
     12139        97  POPC      H8S            35.7144244327       57.2939196894       33.1426143284  MEMB      91              0.0000000000
     12140        97  POPC      C29            37.6803051000       57.9972761877       32.7039622421  MEMB      91              0.0000000000
     12141        97  POPC      H91            37.8510438276       58.7652553666       31.9330425262  MEMB      91              0.0000000000
     12142        97  POPC      C210           38.5104482981       57.9607592725       33.7706884101  MEMB      91              0.0000000000
     12143        97  POPC      H101           39.3024345826       58.7198019028       33.8270662704  MEMB      91              0.0000000000
     12144        97  POPC      C211           38.5137937760       57.0010283560       34.9440574767  MEMB      91              0.0000000000
     12145        97  POPC      H11R           39.2789039642       56.2168355912       34.7493543899  MEMB      91              0.0000000000
     12146        97  POPC      H11S           37.5396870136       56.4759013393       35.0631055282  MEMB      91              0.0000000000
     12147        97  POPC      C212           38.8888121395       57.6524885710       36.2997331410  MEMB      91              0.0000000000
     12148        97  POPC      H12R           37.9967025612       58.1417334843       36.7432797945  MEMB      91              0.0000000000
     12149        97  POPC      H12S           39.6606634880       58.4343701992       36.1344710330  MEMB      91              0.0000000000
     12150        97  POPC      C213           39.4959268797       56.6537435875       37.3048999925  MEMB      91              0.0000000000
     12151        97  POPC      H13R           40.5470370239       56.4971871263       36.9863765071  MEMB      91              0.0000000000
     12152        97  POPC      H13S           38.9624432865       55.6836233735       37.2334981125  MEMB      91              0.0000000000
     12153        97  POPC      C214           39.4858964515       57.1275224461       38.7688860810  MEMB      91              0.0000000000
     12154        97  POPC      H14R           38.4704226066       57.5198022363       38.9921955794  MEMB      91              0.0000000000
     12155        97  POPC      H14S           40.2076261936       57.9610977619       38.8423348923  MEMB      91              0.0000000000
     12156        97  POPC      C215           39.8121917690       56.0411362528       39.8199895402  MEMB      91              0.0000000000
     12157        97  POPC      H15R           40.8892071005       55.7865516170       39.8348126913  MEMB      91              0.0000000000
     12158        97  POPC      H15S           39.2879412844       55.1223596808       39.4781668139  MEMB      91              0.0000000000
     12159        97  POPC      C216           39.3087151772       56.3783334703       41.2451481408  MEMB      91              0.0000000000
     12160        97  POPC      H16R           39.0226770602       55.4515827615       41.7783783943  MEMB      91              0.0000000000
     12161        97  POPC      H16S           38.3685833411       56.9620698619       41.1376549636  MEMB      91              0.0000000000
     12162        97  POPC      C217           40.2981492181       57.1234964961       42.1638558969  MEMB      91              0.0000000000
     12163        97  POPC      H17R           39.7524530358       57.9043268984       42.7144139138  MEMB      91              0.0000000000
     12164        97  POPC      H17S           41.0857525592       57.6159972577       41.5612341316  MEMB      91              0.0000000000
     12165        97  POPC      C218           40.9464511839       56.3309645658       43.2963225164  MEMB      91              0.0000000000
     12166        97  POPC      H18R           40.3237605298       56.3557122790       44.2091059670  MEMB      91              0.0000000000
     12167        97  POPC      H18S           41.9375761831       56.7624229179       43.5483136136  MEMB      91              0.0000000000
     12168        97  POPC      H18T           41.1034240146       55.2873390905       42.9891306726  MEMB      91              0.0000000000
     12169        97  POPC      C33            41.5585541879       56.5791644979       30.5787354457  MEMB      91              0.0000000000
     12170        97  POPC      H3X            42.0447559134       56.4179147630       31.5650129392  MEMB      91              0.0000000000
     12171        97  POPC      H3Y            42.2763338019       56.2245625260       29.8071665161  MEMB      91              0.0000000000
     12172        97  POPC      C34            40.3424137862       55.6432159854       30.5408097058  MEMB      91              0.0000000000
     12173        97  POPC      H4X            40.4880554133       54.9210602973       29.7130958835  MEMB      91              0.0000000000
     12174        97  POPC      H4Y            39.4166615205       56.2265499841       30.3575475838  MEMB      91              0.0000000000
     12175        97  POPC      C35            40.2201533972       54.8661031940       31.8488186821  MEMB      91              0.0000000000
     12176        97  POPC      H5X            39.7628140961       55.5652901213       32.5861904969  MEMB      91              0.0000000000
     12177        97  POPC      H5Y            41.2466254745       54.6425173425       32.2014462475  MEMB      91              0.0000000000
     12178        97  POPC      C36            39.4625306164       53.5271349822       31.8820427708  MEMB      91              0.0000000000
     12179        97  POPC      H6X            40.1610286620       52.6844664836       31.7001655160  MEMB      91              0.0000000000
     12180        97  POPC      H6Y            38.6839900448       53.4444147077       31.1023698468  MEMB      91              0.0000000000
     12181        97  POPC      C37            38.8321813909       53.4198259448       33.2763884688  MEMB      91              0.0000000000
     12182        97  POPC      H7X            38.0664725776       54.2289828625       33.3294009147  MEMB      91              0.0000000000
     12183        97  POPC      H7Y            39.6044774180       53.6566832162       34.0395934432  MEMB      91              0.0000000000
     12184        97  POPC      C38            38.1724914248       52.0998601148       33.6798913071  MEMB      91              0.0000000000
     12185        97  POPC      H8X            38.9046656143       51.4690138814       34.2328398878  MEMB      91              0.0000000000
     12186        97  POPC      H8Y            37.8467757806       51.5431158440       32.7739626010  MEMB      91              0.0000000000
     12187        97  POPC      C39            36.9455928399       52.3812305565       34.5616405939  MEMB      91              0.0000000000
     12188        97  POPC      H9X            36.4229711360       51.4355642874       34.8239482045  MEMB      91              0.0000000000
     12189        97  POPC      H9Y            36.2480602791       52.9956893457       33.9456647770  MEMB      91              0.0000000000
     12190        97  POPC      C310           37.2547225196       53.1785747579       35.8410294065  MEMB      91              0.0000000000
     12191        97  POPC      H10X           37.9330835814       54.0313867316       35.6173330641  MEMB      91              0.0000000000
     12192        97  POPC      H10Y           37.7746508384       52.5237817360       36.5734257030  MEMB      91              0.0000000000
     12193        97  POPC      C311           35.9829020756       53.7632265008       36.4637310097  MEMB      91              0.0000000000
     12194        97  POPC      H11X           35.2955258902       52.9273699330       36.7270759175  MEMB      91              0.0000000000
     12195        97  POPC      H11Y           35.4716308597       54.4073587766       35.7109670000  MEMB      91              0.0000000000
     12196        97  POPC      C312           36.2431343672       54.6058604002       37.7169576603  MEMB      91              0.0000000000
     12197        97  POPC      H12X           36.8776876240       55.4845866574       37.4691432122  MEMB      91              0.0000000000
     12198        97  POPC      H12Y           36.7954225974       53.9880058188       38.4569921808  MEMB      91              0.0000000000
     12199        97  POPC      C313           34.9211669684       55.1008511553       38.3041549383  MEMB      91              0.0000000000
     12200        97  POPC      H13X           34.1308782153       54.3409093483       38.1058004324  MEMB      91              0.0000000000
     12201        97  POPC      H13Y           34.6181211593       56.0330347720       37.7727892517  MEMB      91              0.0000000000
     12202        97  POPC      C314           34.9367398364       55.3673819876       39.8146747377  MEMB      91              0.0000000000
     12203        97  POPC      H14X           33.8878271731       55.6116501567       40.0653747907  MEMB      91              0.0000000000
     12204        97  POPC      H14Y           35.5650404536       56.2553258322       40.0365159501  MEMB      91              0.0000000000
     12205        97  POPC      C315           35.3820049800       54.2012035108       40.7103851880  MEMB      91              0.0000000000
     12206        97  POPC      H15X           36.4926949532       54.1565457026       40.6801644483  MEMB      91              0.0000000000
     12207        97  POPC      H15Y           34.9935660760       53.2480499353       40.2868394008  MEMB      91              0.0000000000
     12208        97  POPC      C316           34.9373756245       54.3264319638       42.1751943874  MEMB      91              0.0000000000
     12209        97  POPC      H16X           33.8428246405       54.2120246249       42.2908591172  MEMB      91              0.0000000000
     12210        97  POPC      H16Y           35.2292994375       55.2964313875       42.6087660833  MEMB      91              0.0000000000
     12211        97  POPC      H16Z           35.4208245804       53.5562179430       42.7986236981  MEMB      91              0.0000000000
     12212        98  POPS      N              54.9620424659       30.4755449382       21.4698992176  MEMB      92              0.0000000000
     12213        98  POPS      HN1            55.6932159298       29.8790921948       21.0210139643  MEMB      92              0.0000000000
     12214        98  POPS      HN2            54.2878079559       29.8477956850       21.9759293895  MEMB      92              0.0000000000
     12215        98  POPS      HN3            54.4625629104       31.0511280242       20.7585852209  MEMB      92              0.0000000000
     12216        98  POPS      C12            55.6974270329       31.3049442490       22.4648641504  MEMB      92              0.0000000000
     12217        98  POPS      H12A           55.6390831891       32.3322154260       22.1532650191  MEMB      92              0.0000000000
     12218        98  POPS      C13            57.1788224102       30.8787254732       22.4374941038  MEMB      92              0.0000000000
     12219        98  POPS      O13A           57.4881484150       29.7939318584       21.8648674682  MEMB      92              0.0000000000
     12220        98  POPS      O13B           58.0325573864       31.6658858440       22.9135101598  MEMB      92              0.0000000000
     12221        98  POPS      C11            55.1005919769       31.1711238203       23.9086338918  MEMB      92              0.0000000000
     12222        98  POPS      H11A           55.5825767526       31.9838276393       24.4878837787  MEMB      92              0.0000000000
     12223        98  POPS      H11B           55.4269880299       30.2127697189       24.3756296684  MEMB      92              0.0000000000
     12224        98  POPS      P              52.7328530141       30.1082860891       23.8047989910  MEMB      92              0.0000000000
     12225        98  POPS      O13            53.5259952758       29.0219068987       23.1848061486  MEMB      92              0.0000000000
     12226        98  POPS      O14            51.5928287318       30.5683017352       22.9930483050  MEMB      92              0.0000000000
     12227        98  POPS      O12            53.6769881436       31.3585588921       23.9995887421  MEMB      92              0.0000000000
     12228        98  POPS      O11            52.2170761477       29.6849277581       25.2179692558  MEMB      92              0.0000000000
     12229        98  POPS      C1             52.9523897317       29.0032274186       26.2264264821  MEMB      92              0.0000000000
     12230        98  POPS      HA             53.9175085002       28.5821487694       25.8530509122  MEMB      92              0.0000000000
     12231        98  POPS      HB             52.3294011109       28.1607380846       26.6020008912  MEMB      92              0.0000000000
     12232        98  POPS      C2             53.2539159752       29.9372177634       27.4252840907  MEMB      92              0.0000000000
     12233        98  POPS      HS             52.3643102284       30.5920377718       27.5939857115  MEMB      92              0.0000000000
     12234        98  POPS      O21            54.4351883563       30.6582293395       27.0665033611  MEMB      92              0.0000000000
     12235        98  POPS      C21            54.4946261545       31.9100462224       27.4472205992  MEMB      92              0.0000000000
     12236        98  POPS      O22            53.6382450339       32.5467045421       28.0400400197  MEMB      92              0.0000000000
     12237        98  POPS      C22            55.8548501171       32.4626774357       27.0837533494  MEMB      92              0.0000000000
     12238        98  POPS      H2R            55.7283631527       33.4191949000       26.5354861255  MEMB      92              0.0000000000
     12239        98  POPS      H2S            56.3970679500       31.7413895363       26.4352991634  MEMB      92              0.0000000000
     12240        98  POPS      C3             53.5229579521       29.1167953139       28.7223278585  MEMB      92              0.0000000000
     12241        98  POPS      HX             54.2858084470       28.3528581482       28.4525109078  MEMB      92              0.0000000000
     12242        98  POPS      HY             52.5993016236       28.5659398857       29.0051217544  MEMB      92              0.0000000000
     12243        98  POPS      O31            54.0552967253       29.8994063954       29.8142977879  MEMB      92              0.0000000000
     12244        98  POPS      C31            53.1750567008       30.3801700592       30.6749630538  MEMB      92              0.0000000000
     12245        98  POPS      O32            51.9660704000       30.2635756894       30.6067377869  MEMB      92              0.0000000000
     12246        98  POPS      C32            53.9057637873       31.0177328575       31.8605681275  MEMB      92              0.0000000000
     12247        98  POPS      H2X            54.3239388684       31.9937127921       31.5402349504  MEMB      92              0.0000000000
     12248        98  POPS      H2Y            54.7332786622       30.3530041771       32.1746312788  MEMB      92              0.0000000000
     12249        98  POPS      C23            56.6584564728       32.6557462578       28.3707370271  MEMB      92              0.0000000000
     12250        98  POPS      H3R            56.1553541743       33.3382934587       29.0911416500  MEMB      92              0.0000000000
     12251        98  POPS      H3S            57.6154561390       33.1209071829       28.0559982183  MEMB      92              0.0000000000
     12252        98  POPS      C24            56.9669200519       31.3187502320       29.0480746585  MEMB      92              0.0000000000
     12253        98  POPS      H4R            57.3524157284       30.6027436172       28.2855833460  MEMB      92              0.0000000000
     12254        98  POPS      H4S            56.0452071008       30.8863982761       29.4787420285  MEMB      92              0.0000000000
     12255        98  POPS      C25            57.9847002421       31.5029252731       30.1644035329  MEMB      92              0.0000000000
     12256        98  POPS      H5R            57.5693332305       32.1869389908       30.9320989020  MEMB      92              0.0000000000
     12257        98  POPS      H5S            58.8615144147       32.0283940572       29.7216645161  MEMB      92              0.0000000000
     12258        98  POPS      C26            58.4573493392       30.1790425901       30.7718160327  MEMB      92              0.0000000000
     12259        98  POPS      H6R            59.4641496201       30.3614787102       31.1983019466  MEMB      92              0.0000000000
     12260        98  POPS      H6S            58.5763499388       29.4089228423       29.9773772947  MEMB      92              0.0000000000
     12261        98  POPS      C27            57.6088715497       29.6418639364       31.9312964295  MEMB      92              0.0000000000
     12262        98  POPS      H7R            58.1441050168       28.7442884086       32.3301563738  MEMB      92              0.0000000000
     12263        98  POPS      H7S            56.6235165557       29.3008220412       31.5460595090  MEMB      92              0.0000000000
     12264        98  POPS      C28            57.4231901035       30.6880618125       33.0497344899  MEMB      92              0.0000000000
     12265        98  POPS      H8R            56.6926821479       31.4618163666       32.7290490753  MEMB      92              0.0000000000
     12266        98  POPS      H8S            58.3948515113       31.2031641309       33.2204275206  MEMB      92              0.0000000000
     12267        98  POPS      C29            56.9603460575       30.0285518389       34.3093276028  MEMB      92              0.0000000000
     12268        98  POPS      H91            56.8040671928       28.9489423963       34.2055624823  MEMB      92              0.0000000000
     12269        98  POPS      C210           56.8716770762       30.6005432536       35.5207215001  MEMB      92              0.0000000000
     12270        98  POPS      H101           56.5825366835       29.9763516924       36.3792184850  MEMB      92              0.0000000000
     12271        98  POPS      C211           57.2300340590       32.0308703495       35.8120334352  MEMB      92              0.0000000000
     12272        98  POPS      H11R           56.5789336862       32.6964963418       35.2079269054  MEMB      92              0.0000000000
     12273        98  POPS      H11S           58.2722226437       32.2311987539       35.4675537942  MEMB      92              0.0000000000
     12274        98  POPS      C212           57.1654158166       32.4870164542       37.2867055003  MEMB      92              0.0000000000
     12275        98  POPS      H12R           56.9712804134       33.5773243280       37.2847422968  MEMB      92              0.0000000000
     12276        98  POPS      H12S           58.1808999827       32.3509084186       37.7283830281  MEMB      92              0.0000000000
     12277        98  POPS      C213           56.1979991527       31.7614950963       38.2439963675  MEMB      92              0.0000000000
     12278        98  POPS      H13R           56.3579523753       32.1751237607       39.2557714811  MEMB      92              0.0000000000
     12279        98  POPS      H13S           56.5257929527       30.7060609514       38.3095506155  MEMB      92              0.0000000000
     12280        98  POPS      C214           54.6862340962       31.7707790464       37.9513596267  MEMB      92              0.0000000000
     12281        98  POPS      H14R           54.4716523239       32.0782223671       36.9147400916  MEMB      92              0.0000000000
     12282        98  POPS      H14S           54.1645750082       32.4604680420       38.6519654805  MEMB      92              0.0000000000
     12283        98  POPS      C215           54.0908222260       30.3913694566       38.1857695131  MEMB      92              0.0000000000
     12284        98  POPS      H15R           54.6026567761       29.9927988788       39.0909856465  MEMB      92              0.0000000000
     12285        98  POPS      H15S           54.3240982555       29.7181561018       37.3319286267  MEMB      92              0.0000000000
     12286        98  POPS      C216           52.5990838283       30.3573237830       38.5066361730  MEMB      92              0.0000000000
     12287        98  POPS      H16R           51.9894120465       30.6593496837       37.6280597277  MEMB      92              0.0000000000
     12288        98  POPS      H16S           52.3811879083       31.0670514197       39.3383678620  MEMB      92              0.0000000000
     12289        98  POPS      C217           52.2953080171       28.9253819939       38.9487047303  MEMB      92              0.0000000000
     12290        98  POPS      H17R           53.0927931213       28.6261493610       39.6631839108  MEMB      92              0.0000000000
     12291        98  POPS      H17S           52.3714049387       28.2555950972       38.0619478921  MEMB      92              0.0000000000
     12292        98  POPS      C218           50.9740961393       28.7060016415       39.6578519128  MEMB      92              0.0000000000
     12293        98  POPS      H18R           50.8479926316       29.4282553807       40.4934302531  MEMB      92              0.0000000000
     12294        98  POPS      H18S           50.9358951982       27.6781190745       40.0803246270  MEMB      92              0.0000000000
     12295        98  POPS      H18T           50.1385551161       28.8144177660       38.9404966109  MEMB      92              0.0000000000
     12296        98  POPS      C33            52.8846345360       31.1777434254       33.0058025172  MEMB      92              0.0000000000
     12297        98  POPS      H3X            52.4915388416       30.1713043553       33.2821456930  MEMB      92              0.0000000000
     12298        98  POPS      H3Y            52.0272966761       31.7726608056       32.6244684759  MEMB      92              0.0000000000
     12299        98  POPS      C34            53.4005897000       31.8585715398       34.2789467283  MEMB      92              0.0000000000
     12300        98  POPS      H4X            54.2625530578       31.2991576886       34.6931897823  MEMB      92              0.0000000000
     12301        98  POPS      H4Y            52.5795838510       31.8103459284       35.0336183890  MEMB      92              0.0000000000
     12302        98  POPS      C35            53.7641867184       33.3375372351       34.0859970103  MEMB      92              0.0000000000
     12303        98  POPS      H5X            52.9075529956       33.8171411215       33.5758587009  MEMB      92              0.0000000000
     12304        98  POPS      H5Y            54.6547319647       33.4427293343       33.4313311940  MEMB      92              0.0000000000
     12305        98  POPS      C36            53.9543331513       34.0794744836       35.4134863239  MEMB      92              0.0000000000
     12306        98  POPS      H6X            54.9396654780       33.8194470819       35.8473247012  MEMB      92              0.0000000000
     12307        98  POPS      H6Y            53.1727125885       33.7236746074       36.1217586405  MEMB      92              0.0000000000
     12308        98  POPS      C37            53.8325445963       35.6037308252       35.3245104694  MEMB      92              0.0000000000
     12309        98  POPS      H7X            52.8770679018       35.8640383660       34.8298473198  MEMB      92              0.0000000000
     12310        98  POPS      H7Y            54.6574953157       36.0093520705       34.6997869363  MEMB      92              0.0000000000
     12311        98  POPS      C38            53.8469117156       36.2557987693       36.7150840977  MEMB      92              0.0000000000
     12312        98  POPS      H8X            53.0923548709       35.7708963892       37.3702134789  MEMB      92              0.0000000000
     12313        98  POPS      H8Y            53.5728253312       37.3303234047       36.6096086330  MEMB      92              0.0000000000
     12314        98  POPS      C39            55.2240439970       36.1644674365       37.3666039736  MEMB      92              0.0000000000
     12315        98  POPS      H9X            55.5355466061       37.1758974922       37.7080145184  MEMB      92              0.0000000000
     12316        98  POPS      H9Y            55.9320388425       35.8108315249       36.5800502224  MEMB      92              0.0000000000
     12317        98  POPS      C310           55.3350231715       35.1904492495       38.5405643333  MEMB      92              0.0000000000
     12318        98  POPS      H10X           56.4076417490       34.9478286044       38.7133221907  MEMB      92              0.0000000000
     12319        98  POPS      H10Y           54.7957990909       34.2707901266       38.2684321933  MEMB      92              0.0000000000
     12320        98  POPS      C311           54.8109304835       35.7491790409       39.8492771025  MEMB      92              0.0000000000
     12321        98  POPS      H11X           53.7066589073       35.8311803135       39.8102611412  MEMB      92              0.0000000000
     12322        98  POPS      H11Y           55.2321105762       36.7752721186       39.9344063779  MEMB      92              0.0000000000
     12323        98  POPS      C312           55.2718978728       34.9859736784       41.0979379436  MEMB      92              0.0000000000
     12324        98  POPS      H12X           54.9434773514       35.5878482917       41.9695936752  MEMB      92              0.0000000000
     12325        98  POPS      H12Y           56.3795912605       34.9608351292       41.1358755953  MEMB      92              0.0000000000
     12326        98  POPS      C313           54.6912509153       33.5788751425       41.2874450115  MEMB      92              0.0000000000
     12327        98  POPS      H13X           55.3229614630       32.8187209046       40.7928260874  MEMB      92              0.0000000000
     12328        98  POPS      H13Y           53.6828793575       33.5164477605       40.8255089309  MEMB      92              0.0000000000
     12329        98  POPS      C314           54.5953923288       33.2229202685       42.7751810435  MEMB      92              0.0000000000
     12330        98  POPS      H14X           54.2315331818       34.1020654545       43.3513541745  MEMB      92              0.0000000000
     12331        98  POPS      H14Y           55.6148157418       32.9943277894       43.1475569992  MEMB      92              0.0000000000
     12332        98  POPS      C315           53.6733817240       32.0375927905       43.0632579842  MEMB      92              0.0000000000
     12333        98  POPS      H15X           53.7256526355       31.3180092815       42.2176502726  MEMB      92              0.0000000000
     12334        98  POPS      H15Y           52.6242738207       32.4097767441       43.1096289429  MEMB      92              0.0000000000
     12335        98  POPS      C316           54.0452902998       31.3217321980       44.3614093259  MEMB      92              0.0000000000
     12336        98  POPS      H16X           54.0800235816       32.0452291333       45.2054476277  MEMB      92              0.0000000000
     12337        98  POPS      H16Y           55.0440431465       30.8396511530       44.2741884340  MEMB      92              0.0000000000
     12338        98  POPS      H16Z           53.3063551303       30.5324494071       44.6032756634  MEMB      92              0.0000000000
     12339        99  POPC      N              15.0633722302       52.5932479074       22.4245897406  MEMB      93              0.0000000000
     12340        99  POPC      C12            16.4758912506       52.0582102784       22.6010258799  MEMB      93              0.0000000000
     12341        99  POPC      H12A           16.7322307871       52.1656988293       23.6530898613  MEMB      93              0.0000000000
     12342        99  POPC      H12B           17.1413680414       52.6774614192       22.0136210150  MEMB      93              0.0000000000
     12343        99  POPC      C13            14.5208790121       52.3007219465       21.0623722936  MEMB      93              0.0000000000
     12344        99  POPC      H13A           14.4401482880       51.2329698050       20.9261542008  MEMB      93              0.0000000000
     12345        99  POPC      H13B           13.5541749338       52.7780367555       20.9365700263  MEMB      93              0.0000000000
     12346        99  POPC      H13C           15.1795858876       52.7225665084       20.3034391593  MEMB      93              0.0000000000
     12347        99  POPC      C14            14.2224007372       51.9406276403       23.4527089468  MEMB      93              0.0000000000
     12348        99  POPC      H14A           14.7052642954       52.0370470943       24.4292387866  MEMB      93              0.0000000000
     12349        99  POPC      H14B           13.2408228103       52.3601450967       23.5214172891  MEMB      93              0.0000000000
     12350        99  POPC      H14C           14.1923884981       50.8650807235       23.2758064339  MEMB      93              0.0000000000
     12351        99  POPC      C15            15.0573972428       54.0550327755       22.6839182431  MEMB      93              0.0000000000
     12352        99  POPC      H15A           14.0652051067       54.4906781369       22.5860133357  MEMB      93              0.0000000000
     12353        99  POPC      H15B           15.6622313046       54.5877435310       21.9505041621  MEMB      93              0.0000000000
     12354        99  POPC      H15C           15.4191476426       54.2997443981       23.6713453521  MEMB      93              0.0000000000
     12355        99  POPC      C11            16.7540114401       50.5733648347       22.2606337216  MEMB      93              0.0000000000
     12356        99  POPC      H11A           17.8512671920       50.3820959875       22.3324780590  MEMB      93              0.0000000000
     12357        99  POPC      H11B           16.4813550421       50.3784460381       21.2030049638  MEMB      93              0.0000000000
     12358        99  POPC      P              16.4828928908       49.5119711063       24.6182430881  MEMB      93              0.0000000000
     12359        99  POPC      O13            16.1618196985       50.7755514704       25.3277203047  MEMB      93              0.0000000000
     12360        99  POPC      O14            17.8868572974       49.0746461167       24.6110421261  MEMB      93              0.0000000000
     12361        99  POPC      O12            16.0186884385       49.6929593198       23.1059570709  MEMB      93              0.0000000000
     12362        99  POPC      O11            15.5377902427       48.3460283376       25.0999961154  MEMB      93              0.0000000000
     12363        99  POPC      C1             15.1059396487       47.2991233148       24.2344293910  MEMB      93              0.0000000000
     12364        99  POPC      HA             15.8310380692       46.4569887542       24.2727653539  MEMB      93              0.0000000000
     12365        99  POPC      HB             15.0279383349       47.6138913086       23.1660307137  MEMB      93              0.0000000000
     12366        99  POPC      C2             13.7108008382       46.8056323445       24.6930870629  MEMB      93              0.0000000000
     12367        99  POPC      HS             13.2995273380       46.1838882277       23.8690743037  MEMB      93              0.0000000000
     12368        99  POPC      O21            12.8096029064       47.8805606120       24.9882213729  MEMB      93              0.0000000000
     12369        99  POPC      C21            12.7223278423       48.9205190934       24.2041006283  MEMB      93              0.0000000000
     12370        99  POPC      O22            12.9145312728       48.9369555444       22.9947373741  MEMB      93              0.0000000000
     12371        99  POPC      C22            12.0252154297       50.0485311613       24.9949075574  MEMB      93              0.0000000000
     12372        99  POPC      H2R            10.9387081126       49.8729378351       24.8323367733  MEMB      93              0.0000000000
     12373        99  POPC      H2S            12.2537143656       51.0328902823       24.5782696238  MEMB      93              0.0000000000
     12374        99  POPC      C3             13.7601036658       45.9062570944       25.9700502189  MEMB      93              0.0000000000
     12375        99  POPC      HX             14.3590083136       44.9899473924       25.7694813945  MEMB      93              0.0000000000
     12376        99  POPC      HY             12.7173627784       45.5655075069       26.1724333493  MEMB      93              0.0000000000
     12377        99  POPC      O31            14.2183883082       46.6371943193       27.1299101140  MEMB      93              0.0000000000
     12378        99  POPC      C31            15.5387685815       46.6133336039       27.3341980815  MEMB      93              0.0000000000
     12379        99  POPC      O32            16.3180753040       45.8590424081       26.7818327225  MEMB      93              0.0000000000
     12380        99  POPC      C32            15.9188102527       47.6292241176       28.4062117315  MEMB      93              0.0000000000
     12381        99  POPC      H2X            15.6886242913       47.2016930565       29.4002122544  MEMB      93              0.0000000000
     12382        99  POPC      H2Y            15.2765892355       48.5179633626       28.2395807003  MEMB      93              0.0000000000
     12383        99  POPC      C23            12.2462025550       50.0516149939       26.5292084892  MEMB      93              0.0000000000
     12384        99  POPC      H3R            12.2464271856       49.0052499874       26.8804646631  MEMB      93              0.0000000000
     12385        99  POPC      H3S            11.3770603153       50.5852041659       26.9772847973  MEMB      93              0.0000000000
     12386        99  POPC      C24            13.4704177779       50.7627189406       27.1225623817  MEMB      93              0.0000000000
     12387        99  POPC      H4R            13.5545876287       51.7872336315       26.7040385645  MEMB      93              0.0000000000
     12388        99  POPC      H4S            14.3981199731       50.2103360466       26.8593138967  MEMB      93              0.0000000000
     12389        99  POPC      C25            13.3590110058       50.8405425501       28.6615763883  MEMB      93              0.0000000000
     12390        99  POPC      H5R            13.5279012735       49.8323914268       29.0999389907  MEMB      93              0.0000000000
     12391        99  POPC      H5S            12.3302184652       51.1654656360       28.9293771802  MEMB      93              0.0000000000
     12392        99  POPC      C26            14.3335274574       51.8204503300       29.3235215660  MEMB      93              0.0000000000
     12393        99  POPC      H6R            14.3000848454       52.7721120152       28.7591718514  MEMB      93              0.0000000000
     12394        99  POPC      H6S            15.3618273805       51.4259582063       29.2059865305  MEMB      93              0.0000000000
     12395        99  POPC      C27            14.0388549996       52.1131170634       30.8141934710  MEMB      93              0.0000000000
     12396        99  POPC      H7R            13.0816175229       52.6740157419       30.9064054248  MEMB      93              0.0000000000
     12397        99  POPC      H7S            14.8513837164       52.7862266151       31.1756472352  MEMB      93              0.0000000000
     12398        99  POPC      C28            13.9622904845       50.8545480781       31.7109383348  MEMB      93              0.0000000000
     12399        99  POPC      H8R            14.7452548993       50.1496396288       31.3619490523  MEMB      93              0.0000000000
     12400        99  POPC      H8S            12.9890980816       50.3448019338       31.5352132421  MEMB      93              0.0000000000
     12401        99  POPC      C29            14.2166917523       51.1485879555       33.1734916234  MEMB      93              0.0000000000
     12402        99  POPC      H91            15.0564486797       51.8366744197       33.3590934525  MEMB      93              0.0000000000
     12403        99  POPC      C210           13.5515883596       50.6687374054       34.2409663022  MEMB      93              0.0000000000
     12404        99  POPC      H101           13.8598640134       50.9932270827       35.2472850741  MEMB      93              0.0000000000
     12405        99  POPC      C211           12.3843349602       49.7207682676       34.2411532969  MEMB      93              0.0000000000
     12406        99  POPC      H11R           11.8625097272       49.7150431104       33.2577869208  MEMB      93              0.0000000000
     12407        99  POPC      H11S           11.6495422614       50.1061173457       34.9768269646  MEMB      93              0.0000000000
     12408        99  POPC      C212           12.6991669054       48.2531747238       34.6154760106  MEMB      93              0.0000000000
     12409        99  POPC      H12R           13.3128100603       47.7740050499       33.8225776884  MEMB      93              0.0000000000
     12410        99  POPC      H12S           11.7348443672       47.7081423567       34.6843953881  MEMB      93              0.0000000000
     12411        99  POPC      C213           13.3622479356       48.0606595401       35.9777219673  MEMB      93              0.0000000000
     12412        99  POPC      H13R           12.9345846542       48.8171137088       36.6725642669  MEMB      93              0.0000000000
     12413        99  POPC      H13S           14.4472081829       48.2603912958       35.8597608930  MEMB      93              0.0000000000
     12414        99  POPC      C214           13.1583401627       46.6671510244       36.6095189823  MEMB      93              0.0000000000
     12415        99  POPC      H14R           13.8445068846       45.9441636952       36.1171268468  MEMB      93              0.0000000000
     12416        99  POPC      H14S           12.1148710933       46.3156469570       36.4545745681  MEMB      93              0.0000000000
     12417        99  POPC      C215           13.4433370120       46.7364264475       38.1164826058  MEMB      93              0.0000000000
     12418        99  POPC      H15R           12.6398498486       47.3156652751       38.6214352670  MEMB      93              0.0000000000
     12419        99  POPC      H15S           14.3814982729       47.3293729551       38.2045475458  MEMB      93              0.0000000000
     12420        99  POPC      C216           13.7032445273       45.4126710124       38.8556616307  MEMB      93              0.0000000000
     12421        99  POPC      H16R           14.1275090540       45.6731134026       39.8542243517  MEMB      93              0.0000000000
     12422        99  POPC      H16S           14.4753776402       44.8397042036       38.3069740665  MEMB      93              0.0000000000
     12423        99  POPC      C217           12.4995567115       44.4903168782       39.0913321236  MEMB      93              0.0000000000
     12424        99  POPC      H17R           12.8248992440       43.6767592140       39.7814598627  MEMB      93              0.0000000000
     12425        99  POPC      H17S           12.2315919564       44.0067979101       38.1280900353  MEMB      93              0.0000000000
     12426        99  POPC      C218           11.2690572215       45.1738082881       39.6844164884  MEMB      93              0.0000000000
     12427        99  POPC      H18R           10.4761277690       44.4283585393       39.9120921169  MEMB      93              0.0000000000
     12428        99  POPC      H18S           10.8527732581       45.9143500574       38.9709085696  MEMB      93              0.0000000000
     12429        99  POPC      H18T           11.5241609933       45.7101338588       40.6202434424  MEMB      93              0.0000000000
     12430        99  POPC      C33            17.4078806570       48.0504110963       28.3102582709  MEMB      93              0.0000000000
     12431        99  POPC      H3X            17.7252438298       48.0261085170       27.2407753901  MEMB      93              0.0000000000
     12432        99  POPC      H3Y            18.0464328571       47.3256875516       28.8581144220  MEMB      93              0.0000000000
     12433        99  POPC      C34            17.6687674522       49.4826703952       28.8108888540  MEMB      93              0.0000000000
     12434        99  POPC      H4X            16.9759777479       50.1674312740       28.2709467994  MEMB      93              0.0000000000
     12435        99  POPC      H4Y            18.7022022497       49.7871916322       28.5386152513  MEMB      93              0.0000000000
     12436        99  POPC      C35            17.4928933116       49.6074515134       30.3290083261  MEMB      93              0.0000000000
     12437        99  POPC      H5X            18.2411738638       48.9597775569       30.8288121322  MEMB      93              0.0000000000
     12438        99  POPC      H5Y            16.4900960015       49.1881542287       30.5714956629  MEMB      93              0.0000000000
     12439        99  POPC      C36            17.5385632303       51.0457016867       30.8845094269  MEMB      93              0.0000000000
     12440        99  POPC      H6X            16.8067774914       51.1057962032       31.7202155944  MEMB      93              0.0000000000
     12441        99  POPC      H6Y            17.2032480495       51.7648138272       30.1062024797  MEMB      93              0.0000000000
     12442        99  POPC      C37            18.8847483062       51.5318466988       31.4428230974  MEMB      93              0.0000000000
     12443        99  POPC      H7X            18.7198860787       52.5164139552       31.9350218354  MEMB      93              0.0000000000
     12444        99  POPC      H7Y            19.5767538059       51.7091668396       30.5858996257  MEMB      93              0.0000000000
     12445        99  POPC      C38            19.5824525765       50.5888968903       32.4387413825  MEMB      93              0.0000000000
     12446        99  POPC      H8X            20.4369129832       51.1257342972       32.9029060723  MEMB      93              0.0000000000
     12447        99  POPC      H8Y            20.0128251593       49.7618080230       31.8315818861  MEMB      93              0.0000000000
     12448        99  POPC      C39            18.7227278111       49.9338994344       33.5396091789  MEMB      93              0.0000000000
     12449        99  POPC      H9X            19.3877718021       49.2423631310       34.1079690030  MEMB      93              0.0000000000
     12450        99  POPC      H9Y            17.9320131444       49.3120256691       33.0653810745  MEMB      93              0.0000000000
     12451        99  POPC      C310           18.0469686180       50.8710802229       34.5525258468  MEMB      93              0.0000000000
     12452        99  POPC      H10X           17.3081896959       51.5131518836       34.0249749959  MEMB      93              0.0000000000
     12453        99  POPC      H10Y           18.7998071240       51.5393400972       35.0182297062  MEMB      93              0.0000000000
     12454        99  POPC      C311           17.3362947589       50.0636478061       35.6558246263  MEMB      93              0.0000000000
     12455        99  POPC      H11X           18.0900061009       49.4626751039       36.2124874818  MEMB      93              0.0000000000
     12456        99  POPC      H11Y           16.6317162468       49.3496580181       35.1689803833  MEMB      93              0.0000000000
     12457        99  POPC      C312           16.5461694423       50.9316281764       36.6462442935  MEMB      93              0.0000000000
     12458        99  POPC      H12X           15.7741676050       51.4823437141       36.0651195616  MEMB      93              0.0000000000
     12459        99  POPC      H12Y           17.2151253740       51.6886444317       37.1091559577  MEMB      93              0.0000000000
     12460        99  POPC      C313           15.8534492132       50.1212666397       37.7568112794  MEMB      93              0.0000000000
     12461        99  POPC      H13X           16.6060337819       49.7785272788       38.4990055504  MEMB      93              0.0000000000
     12462        99  POPC      H13Y           15.4057825755       49.2098974653       37.3195251083  MEMB      93              0.0000000000
     12463        99  POPC      C314           14.7477672321       50.9270641041       38.4555699860  MEMB      93              0.0000000000
     12464        99  POPC      H14X           14.1339968958       51.4486098532       37.6847557496  MEMB      93              0.0000000000
     12465        99  POPC      H14Y           15.2332394492       51.6939221155       39.0922294789  MEMB      93              0.0000000000
     12466        99  POPC      C315           13.7914195199       50.1148155748       39.3391761118  MEMB      93              0.0000000000
     12467        99  POPC      H15X           13.1256976916       49.5171699102       38.6804036734  MEMB      93              0.0000000000
     12468        99  POPC      H15Y           13.1400711522       50.8320263357       39.8917335531  MEMB      93              0.0000000000
     12469        99  POPC      C316           14.4622061907       49.1758807528       40.3413136896  MEMB      93              0.0000000000
     12470        99  POPC      H16X           13.6949317949       48.6862096283       40.9802090072  MEMB      93              0.0000000000
     12471        99  POPC      H16Y           15.1707776060       49.7322777268       40.9847414325  MEMB      93              0.0000000000
     12472        99  POPC      H16Z           15.0371387700       48.3801658759       39.8309529011  MEMB      93              0.0000000000
     12473       100  POPC      N              12.4840470224       19.8863584965       23.1259761807  MEMB      94              0.0000000000
     12474       100  POPC      C12            13.3692897489       20.5665682151       24.1381382880  MEMB      94              0.0000000000
     12475       100  POPC      H12A           12.8860264216       20.5790614407       25.1050366133  MEMB      94              0.0000000000
     12476       100  POPC      H12B           13.5300255258       21.5921411951       23.8354428095  MEMB      94              0.0000000000
     12477       100  POPC      C13            11.1702720285       20.5716305144       22.9032416628  MEMB      94              0.0000000000
     12478       100  POPC      H13A           10.6538473773       20.8495941277       23.8118349775  MEMB      94              0.0000000000
     12479       100  POPC      H13B           11.2982934323       21.4516962036       22.2761316845  MEMB      94              0.0000000000
     12480       100  POPC      H13C           10.5088288795       19.8881042243       22.3615043136  MEMB      94              0.0000000000
     12481       100  POPC      C14            13.2192066354       19.8225680282       21.8195287590  MEMB      94              0.0000000000
     12482       100  POPC      H14A           13.4284164401       20.8186578982       21.4429185023  MEMB      94              0.0000000000
     12483       100  POPC      H14B           14.2008162142       19.3645589902       21.9784956695  MEMB      94              0.0000000000
     12484       100  POPC      H14C           12.6474446984       19.2480331674       21.1013052495  MEMB      94              0.0000000000
     12485       100  POPC      C15            12.2122826444       18.4612415998       23.5237509518  MEMB      94              0.0000000000
     12486       100  POPC      H15A           13.1265010971       17.8758812746       23.5161573461  MEMB      94              0.0000000000
     12487       100  POPC      H15B           11.5359597738       18.0026181333       22.8000355688  MEMB      94              0.0000000000
     12488       100  POPC      H15C           11.7485850199       18.3817240346       24.4935507678  MEMB      94              0.0000000000
     12489       100  POPC      C11            14.7865552738       19.9733097133       24.2805159512  MEMB      94              0.0000000000
     12490       100  POPC      H11A           14.7546708794       18.8616877557       24.3614337611  MEMB      94              0.0000000000
     12491       100  POPC      H11B           15.1868813209       20.3570837049       25.2443390496  MEMB      94              0.0000000000
     12492       100  POPC      P              17.1727156222       20.4165442940       23.4277256271  MEMB      94              0.0000000000
     12493       100  POPC      O13            17.5109751089       21.6664237770       24.1356656277  MEMB      94              0.0000000000
     12494       100  POPC      O14            17.9275023881       20.1508609794       22.1732064693  MEMB      94              0.0000000000
     12495       100  POPC      O12            15.6083447958       20.3784077147       23.1752471820  MEMB      94              0.0000000000
     12496       100  POPC      O11            17.3497696559       19.2092689037       24.4414276969  MEMB      94              0.0000000000
     12497       100  POPC      C1             18.6088460929       18.7220422667       24.8989635748  MEMB      94              0.0000000000
     12498       100  POPC      HA             19.3964311678       19.4907244983       24.7282994217  MEMB      94              0.0000000000
     12499       100  POPC      HB             18.8807982877       17.7908819294       24.3542946874  MEMB      94              0.0000000000
     12500       100  POPC      C2             18.6422544564       18.4459583627       26.4390417851  MEMB      94              0.0000000000
     12501       100  POPC      HS             19.7167969978       18.3544210579       26.7250660785  MEMB      94              0.0000000000
     12502       100  POPC      O21            17.9385698524       17.2293705456       26.7860689592  MEMB      94              0.0000000000
     12503       100  POPC      C21            17.9304557425       17.0102696648       28.1093572533  MEMB      94              0.0000000000
     12504       100  POPC      O22            18.7627086390       17.4225010274       28.8967343603  MEMB      94              0.0000000000
     12505       100  POPC      C22            16.6079589457       16.3455357272       28.4730315488  MEMB      94              0.0000000000
     12506       100  POPC      H2R            16.6998172571       15.2608665407       28.2670984746  MEMB      94              0.0000000000
     12507       100  POPC      H2S            15.8265373474       16.7818466810       27.8126534458  MEMB      94              0.0000000000
     12508       100  POPC      C3             18.0414834248       19.6799774395       27.1948458348  MEMB      94              0.0000000000
     12509       100  POPC      HX             18.3992427337       20.5608217623       26.6085802985  MEMB      94              0.0000000000
     12510       100  POPC      HY             18.4776413330       19.7347955667       28.2156787073  MEMB      94              0.0000000000
     12511       100  POPC      O31            16.5967553213       19.6617500614       27.2961119573  MEMB      94              0.0000000000
     12512       100  POPC      C31            16.1307801369       20.8606671757       27.6381334538  MEMB      94              0.0000000000
     12513       100  POPC      O32            16.8055245147       21.8599446762       27.8034580358  MEMB      94              0.0000000000
     12514       100  POPC      C32            14.6142233127       20.8126641523       27.8414974580  MEMB      94              0.0000000000
     12515       100  POPC      H2X            14.2578508654       19.7664531827       27.8990802000  MEMB      94              0.0000000000
     12516       100  POPC      H2Y            14.1552270870       21.3028669864       26.9563053684  MEMB      94              0.0000000000
     12517       100  POPC      C23            16.2269823817       16.5926918731       29.9477104775  MEMB      94              0.0000000000
     12518       100  POPC      H3R            16.4131982589       17.6578262061       30.2199597858  MEMB      94              0.0000000000
     12519       100  POPC      H3S            16.8893843257       15.9607382502       30.5817383572  MEMB      94              0.0000000000
     12520       100  POPC      C24            14.7444594875       16.2924706841       30.2207934961  MEMB      94              0.0000000000
     12521       100  POPC      H4R            14.5371489420       15.2342881385       29.9478244436  MEMB      94              0.0000000000
     12522       100  POPC      H4S            14.1220317572       16.9255767408       29.5496675584  MEMB      94              0.0000000000
     12523       100  POPC      C25            14.3131849513       16.5336423341       31.6808954541  MEMB      94              0.0000000000
     12524       100  POPC      H5R            13.2380590446       16.2634649600       31.7847961622  MEMB      94              0.0000000000
     12525       100  POPC      H5S            14.4087303349       17.6148206205       31.9197553975  MEMB      94              0.0000000000
     12526       100  POPC      C26            15.1440176474       15.7153283462       32.6782549449  MEMB      94              0.0000000000
     12527       100  POPC      H6R            16.2122107233       16.0252423637       32.6223128433  MEMB      94              0.0000000000
     12528       100  POPC      H6S            15.0747832531       14.6498443981       32.3683490523  MEMB      94              0.0000000000
     12529       100  POPC      C27            14.6984967603       15.7993466991       34.1447432970  MEMB      94              0.0000000000
     12530       100  POPC      H7R            15.2534076343       15.0070934945       34.6987666138  MEMB      94              0.0000000000
     12531       100  POPC      H7S            13.6199447790       15.5492584432       34.2241447407  MEMB      94              0.0000000000
     12532       100  POPC      C28            14.9653536993       17.1653883387       34.8109235380  MEMB      94              0.0000000000
     12533       100  POPC      H8R            14.0167095762       17.7474671600       34.8023613556  MEMB      94              0.0000000000
     12534       100  POPC      H8S            15.6723944988       17.7259517440       34.1616951827  MEMB      94              0.0000000000
     12535       100  POPC      C29            15.5280487203       17.1087745205       36.2118300413  MEMB      94              0.0000000000
     12536       100  POPC      H91            16.5157510130       17.5786248350       36.3414299280  MEMB      94              0.0000000000
     12537       100  POPC      C210           14.9550886083       16.5205453532       37.2752929109  MEMB      94              0.0000000000
     12538       100  POPC      H101           15.4835202348       16.5373381621       38.2431141934  MEMB      94              0.0000000000
     12539       100  POPC      C211           13.6337841536       15.7962633884       37.2806651816  MEMB      94              0.0000000000
     12540       100  POPC      H11R           13.6033155767       15.1063306215       38.1442325587  MEMB      94              0.0000000000
     12541       100  POPC      H11S           13.5108783440       15.1628548070       36.3780893355  MEMB      94              0.0000000000
     12542       100  POPC      C212           12.3829234076       16.6626860713       37.4304647645  MEMB      94              0.0000000000
     12543       100  POPC      H12R           11.4896477072       16.0137642264       37.2868002164  MEMB      94              0.0000000000
     12544       100  POPC      H12S           12.3396981922       17.4649426304       36.6628123649  MEMB      94              0.0000000000
     12545       100  POPC      C213           12.2765883076       17.2436911882       38.8324324033  MEMB      94              0.0000000000
     12546       100  POPC      H13R           12.9909062207       18.0914147392       38.9080576966  MEMB      94              0.0000000000
     12547       100  POPC      H13S           12.5824450650       16.4907175352       39.5942160924  MEMB      94              0.0000000000
     12548       100  POPC      C214           10.8425202740       17.6754030314       39.1275106749  MEMB      94              0.0000000000
     12549       100  POPC      H14R           10.2293769899       16.7776470291       39.3523166049  MEMB      94              0.0000000000
     12550       100  POPC      H14S           10.4060317335       18.1780411916       38.2341108223  MEMB      94              0.0000000000
     12551       100  POPC      C215           10.8016243331       18.6585909744       40.2795420962  MEMB      94              0.0000000000
     12552       100  POPC      H15R           11.4658086072       18.2840609364       41.0894309519  MEMB      94              0.0000000000
     12553       100  POPC      H15S            9.7869756599       18.7053706957       40.7177183300  MEMB      94              0.0000000000
     12554       100  POPC      C216           11.2448555685       20.0370456428       39.7760571124  MEMB      94              0.0000000000
     12555       100  POPC      H16R           10.3621552852       20.6612209202       39.5307917653  MEMB      94              0.0000000000
     12556       100  POPC      H16S           11.8115852420       19.9411183206       38.8223493311  MEMB      94              0.0000000000
     12557       100  POPC      C217           12.1647691043       20.7040399890       40.7773445267  MEMB      94              0.0000000000
     12558       100  POPC      H17R           11.6599117633       20.7098953754       41.7686040295  MEMB      94              0.0000000000
     12559       100  POPC      H17S           12.3612297758       21.7578470746       40.4753434327  MEMB      94              0.0000000000
     12560       100  POPC      C218           13.5007547927       19.9821052552       40.8937782334  MEMB      94              0.0000000000
     12561       100  POPC      H18R           14.1677065035       20.6124401391       41.5082788684  MEMB      94              0.0000000000
     12562       100  POPC      H18S           13.9528610324       19.8297564101       39.8879361068  MEMB      94              0.0000000000
     12563       100  POPC      H18T           13.4153557239       18.9924550008       41.3886456399  MEMB      94              0.0000000000
     12564       100  POPC      C33            14.2133209374       21.6237862488       29.0945078184  MEMB      94              0.0000000000
     12565       100  POPC      H3X            13.1183355971       21.8389319106       29.0483143930  MEMB      94              0.0000000000
     12566       100  POPC      H3Y            14.7325421489       22.6067098377       29.0607201236  MEMB      94              0.0000000000
     12567       100  POPC      C34            14.4991611877       20.9567453699       30.4558195759  MEMB      94              0.0000000000
     12568       100  POPC      H4X            14.0253554481       19.9524722001       30.4945613364  MEMB      94              0.0000000000
     12569       100  POPC      H4Y            14.0013335224       21.5861584930       31.2294783462  MEMB      94              0.0000000000
     12570       100  POPC      C35            15.9896113627       20.8523117264       30.8393131747  MEMB      94              0.0000000000
     12571       100  POPC      H5X            16.4761449930       21.8441944923       30.7283630636  MEMB      94              0.0000000000
     12572       100  POPC      H5Y            16.4931336223       20.1524836582       30.1356144351  MEMB      94              0.0000000000
     12573       100  POPC      C36            16.2313269348       20.3225550290       32.2646836823  MEMB      94              0.0000000000
     12574       100  POPC      H6X            17.2936557509       19.9983702490       32.3614827838  MEMB      94              0.0000000000
     12575       100  POPC      H6Y            15.6007245179       19.4176930181       32.4033862104  MEMB      94              0.0000000000
     12576       100  POPC      C37            15.9374800433       21.3245346876       33.3961761825  MEMB      94              0.0000000000
     12577       100  POPC      H7X            15.0749442648       21.9700883757       33.1199336526  MEMB      94              0.0000000000
     12578       100  POPC      H7Y            16.8231859869       21.9832428136       33.5351291235  MEMB      94              0.0000000000
     12579       100  POPC      C38            15.5952298094       20.6024559949       34.7115810117  MEMB      94              0.0000000000
     12580       100  POPC      H8X            16.4517022790       19.9595632064       35.0163544867  MEMB      94              0.0000000000
     12581       100  POPC      H8Y            14.7265651485       19.9336915799       34.5150733559  MEMB      94              0.0000000000
     12582       100  POPC      C39            15.2211352544       21.5236725995       35.8835750215  MEMB      94              0.0000000000
     12583       100  POPC      H9X            14.8668979479       20.8807347319       36.7229452395  MEMB      94              0.0000000000
     12584       100  POPC      H9Y            14.3731389984       22.1814315810       35.5933767957  MEMB      94              0.0000000000
     12585       100  POPC      C310           16.4037485699       22.3703992714       36.3663764950  MEMB      94              0.0000000000
     12586       100  POPC      H10X           16.6490465080       23.1200528562       35.5799663702  MEMB      94              0.0000000000
     12587       100  POPC      H10Y           17.2903349832       21.7067894501       36.4807329024  MEMB      94              0.0000000000
     12588       100  POPC      C311           16.1569477280       23.1112045227       37.6916029432  MEMB      94              0.0000000000
     12589       100  POPC      H11X           15.3069940040       23.8202125761       37.5644634237  MEMB      94              0.0000000000
     12590       100  POPC      H11Y           17.0635317044       23.7196760432       37.9141561594  MEMB      94              0.0000000000
     12591       100  POPC      C312           15.8793465758       22.2151911951       38.9139523675  MEMB      94              0.0000000000
     12592       100  POPC      H12X           14.8360107792       21.8305815362       38.8736642203  MEMB      94              0.0000000000
     12593       100  POPC      H12Y           15.9467588592       22.8634567895       39.8191584228  MEMB      94              0.0000000000
     12594       100  POPC      C313           16.8485063626       21.0271703599       39.0821296444  MEMB      94              0.0000000000
     12595       100  POPC      H13X           17.8577296586       21.3157051411       38.7111552265  MEMB      94              0.0000000000
     12596       100  POPC      H13Y           16.4882210394       20.1667218486       38.4760006313  MEMB      94              0.0000000000
     12597       100  POPC      C314           16.9857211085       20.6224232494       40.5538218430  MEMB      94              0.0000000000
     12598       100  POPC      H14X           15.9962017607       20.4592010921       40.9968549955  MEMB      94              0.0000000000
     12599       100  POPC      H14Y           17.4307779902       21.4843182479       41.0877653011  MEMB      94              0.0000000000
     12600       100  POPC      C315           17.7886040251       19.3541242867       40.8429580874  MEMB      94              0.0000000000
     12601       100  POPC      H15X           18.3432928495       19.5086442469       41.7962692476  MEMB      94              0.0000000000
     12602       100  POPC      H15Y           18.5429636991       19.2226600135       40.0431888046  MEMB      94              0.0000000000
     12603       100  POPC      C316           16.9154399782       18.1044476130       41.0143563786  MEMB      94              0.0000000000
     12604       100  POPC      H16X           17.5513246891       17.2156768300       41.2163591166  MEMB      94              0.0000000000
     12605       100  POPC      H16Y           16.3131145236       17.9142043664       40.1009774956  MEMB      94              0.0000000000
     12606       100  POPC      H16Z           16.2159143023       18.2214222268       41.8715072838  MEMB      94              0.0000000000
     12607       101  POPC      N              37.5297357651       12.3997671185       21.6778201785  MEMB      95              0.0000000000
     12608       101  POPC      C12            36.8415050109       11.0753512683       21.3766711069  MEMB      95              0.0000000000
     12609       101  POPC      H12A           37.5852947906       10.2850705759       21.3273362390  MEMB      95              0.0000000000
     12610       101  POPC      H12B           36.4353016465       11.1529400175       20.3808335308  MEMB      95              0.0000000000
     12611       101  POPC      C13            38.2220276435       12.3626228686       22.9959079935  MEMB      95              0.0000000000
     12612       101  POPC      H13A           38.9593822879       11.5692461625       23.0686804904  MEMB      95              0.0000000000
     12613       101  POPC      H13B           38.6258313769       13.3113157627       23.3152452189  MEMB      95              0.0000000000
     12614       101  POPC      H13C           37.5228347348       12.0252645678       23.7710056451  MEMB      95              0.0000000000
     12615       101  POPC      C14            38.4823398417       12.6677248979       20.5437765768  MEMB      95              0.0000000000
     12616       101  POPC      H14A           39.3150943491       11.9828705062       20.5767440508  MEMB      95              0.0000000000
     12617       101  POPC      H14B           37.9592644323       12.5201417507       19.5941487035  MEMB      95              0.0000000000
     12618       101  POPC      H14C           38.8193690545       13.6967615597       20.5217116905  MEMB      95              0.0000000000
     12619       101  POPC      C15            36.5453233159       13.5176583143       21.6922642161  MEMB      95              0.0000000000
     12620       101  POPC      H15A           35.8436906927       13.4867684270       20.8611363507  MEMB      95              0.0000000000
     12621       101  POPC      H15B           37.0251712877       14.4842208093       21.6087637007  MEMB      95              0.0000000000
     12622       101  POPC      H15C           35.9285369701       13.4968925471       22.5754188053  MEMB      95              0.0000000000
     12623       101  POPC      C11            35.6956327532       10.4974871016       22.2420342031  MEMB      95              0.0000000000
     12624       101  POPC      H11A           35.2794586197        9.5915363376       21.7447994570  MEMB      95              0.0000000000
     12625       101  POPC      H11B           34.8514731825       11.2110667987       22.2757456460  MEMB      95              0.0000000000
     12626       101  POPC      P              37.3124326223        9.1647351870       23.7917534680  MEMB      95              0.0000000000
     12627       101  POPC      O13            38.2910149268        9.9892690454       24.5329334104  MEMB      95              0.0000000000
     12628       101  POPC      O14            37.7667589418        8.6006029891       22.5006777879  MEMB      95              0.0000000000
     12629       101  POPC      O12            36.1250518621       10.1572275177       23.5461189255  MEMB      95              0.0000000000
     12630       101  POPC      O11            36.6837246420        8.0477492415       24.6828862807  MEMB      95              0.0000000000
     12631       101  POPC      C1             35.3686233640        7.5358977347       24.5277001428  MEMB      95              0.0000000000
     12632       101  POPC      HA             35.4104568284        6.5513971286       24.0115979330  MEMB      95              0.0000000000
     12633       101  POPC      HB             34.7162287283        8.2017248095       23.9131971852  MEMB      95              0.0000000000
     12634       101  POPC      C2             34.7343931196        7.3624490069       25.9312039421  MEMB      95              0.0000000000
     12635       101  POPC      HS             33.6598369565        7.0921557776       25.8199977344  MEMB      95              0.0000000000
     12636       101  POPC      O21            34.8386133170        8.5397569616       26.7276266726  MEMB      95              0.0000000000
     12637       101  POPC      C21            34.1975062166        9.5961170745       26.3285718596  MEMB      95              0.0000000000
     12638       101  POPC      O22            33.5197955391        9.7037493974       25.3226016714  MEMB      95              0.0000000000
     12639       101  POPC      C22            34.4075322691       10.6228612737       27.4431575726  MEMB      95              0.0000000000
     12640       101  POPC      H2R            33.8260987439       10.2489397756       28.3091955282  MEMB      95              0.0000000000
     12641       101  POPC      H2S            33.9921131979       11.5959033481       27.1555412028  MEMB      95              0.0000000000
     12642       101  POPC      C3             35.4185908159        6.2581214354       26.7727951469  MEMB      95              0.0000000000
     12643       101  POPC      HX             36.5187137504        6.4594293072       26.7752439610  MEMB      95              0.0000000000
     12644       101  POPC      HY             35.2427422070        5.2681396190       26.3009416839  MEMB      95              0.0000000000
     12645       101  POPC      O31            34.8287304695        6.3224473191       28.0871685060  MEMB      95              0.0000000000
     12646       101  POPC      C31            35.6374766211        6.3352042545       29.1384855748  MEMB      95              0.0000000000
     12647       101  POPC      O32            36.7222487262        5.7936233340       29.2111645765  MEMB      95              0.0000000000
     12648       101  POPC      C32            34.9052656246        7.0122014215       30.3188094989  MEMB      95              0.0000000000
     12649       101  POPC      H2X            34.8207620771        6.2359369335       31.1065620539  MEMB      95              0.0000000000
     12650       101  POPC      H2Y            33.8913098755        7.3035675041       29.9843826509  MEMB      95              0.0000000000
     12651       101  POPC      C23            35.8745916308       10.7664538898       27.9018463525  MEMB      95              0.0000000000
     12652       101  POPC      H3R            36.5284436615       11.0743590141       27.0544961974  MEMB      95              0.0000000000
     12653       101  POPC      H3S            36.2452456753        9.7787074398       28.2610759266  MEMB      95              0.0000000000
     12654       101  POPC      C24            35.9680540368       11.7730326831       29.0520475881  MEMB      95              0.0000000000
     12655       101  POPC      H4R            35.1001131924       11.6525923398       29.7398737898  MEMB      95              0.0000000000
     12656       101  POPC      H4S            35.9032447075       12.7937873988       28.6095892891  MEMB      95              0.0000000000
     12657       101  POPC      C25            37.2562178844       11.6287114519       29.8657157376  MEMB      95              0.0000000000
     12658       101  POPC      H5R            38.1215756228       11.5544185437       29.1679524638  MEMB      95              0.0000000000
     12659       101  POPC      H5S            37.2297947859       10.6965228216       30.4743666627  MEMB      95              0.0000000000
     12660       101  POPC      C26            37.4536150741       12.8333943191       30.7852281095  MEMB      95              0.0000000000
     12661       101  POPC      H6R            36.8414960378       12.6896255454       31.6992575803  MEMB      95              0.0000000000
     12662       101  POPC      H6S            37.0413916528       13.7303296572       30.2691967520  MEMB      95              0.0000000000
     12663       101  POPC      C27            38.9276802649       13.1332548779       31.1016015517  MEMB      95              0.0000000000
     12664       101  POPC      H7R            39.0202210522       14.2149849672       31.3527321359  MEMB      95              0.0000000000
     12665       101  POPC      H7S            39.5544474411       12.9588939437       30.1981280761  MEMB      95              0.0000000000
     12666       101  POPC      C28            39.4960802819       12.3571189906       32.2897886388  MEMB      95              0.0000000000
     12667       101  POPC      H8R            40.5734731046       12.6093710309       32.3993431417  MEMB      95              0.0000000000
     12668       101  POPC      H8S            39.4081823928       11.2634065480       32.0995521580  MEMB      95              0.0000000000
     12669       101  POPC      C29            38.7221694643       12.8054068361       33.4937214624  MEMB      95              0.0000000000
     12670       101  POPC      H91            38.3901004957       13.8556577104       33.4755278336  MEMB      95              0.0000000000
     12671       101  POPC      C210           38.5002614199       12.0973191836       34.5948666766  MEMB      95              0.0000000000
     12672       101  POPC      H101           37.9520054477       12.5633578660       35.4282023865  MEMB      95              0.0000000000
     12673       101  POPC      C211           38.9887760513       10.7073897024       34.8800877709  MEMB      95              0.0000000000
     12674       101  POPC      H11R           39.4087010402       10.1676611325       34.0048303783  MEMB      95              0.0000000000
     12675       101  POPC      H11S           38.1606788864       10.0893297557       35.2752640428  MEMB      95              0.0000000000
     12676       101  POPC      C212           40.0737722600       10.9183907558       35.9497718808  MEMB      95              0.0000000000
     12677       101  POPC      H12R           39.8068385353       11.8136306308       36.5423867255  MEMB      95              0.0000000000
     12678       101  POPC      H12S           41.0407593942       11.1570343828       35.4715536638  MEMB      95              0.0000000000
     12679       101  POPC      C213           40.1977561241        9.7459296829       36.9223041371  MEMB      95              0.0000000000
     12680       101  POPC      H13R           40.8457954040        8.9565158789       36.4867524198  MEMB      95              0.0000000000
     12681       101  POPC      H13S           39.1858705759        9.3068259047       37.0091323628  MEMB      95              0.0000000000
     12682       101  POPC      C214           40.6103555370       10.0801001289       38.3772306475  MEMB      95              0.0000000000
     12683       101  POPC      H14R           41.4224249184        9.3792724336       38.6174042327  MEMB      95              0.0000000000
     12684       101  POPC      H14S           39.7805718048        9.7611384920       39.0356863267  MEMB      95              0.0000000000
     12685       101  POPC      C215           40.9689967328       11.5616725814       38.6629534204  MEMB      95              0.0000000000
     12686       101  POPC      H15R           40.0947918687       12.1815972967       38.3669964221  MEMB      95              0.0000000000
     12687       101  POPC      H15S           41.8346632576       11.8748129666       38.0402624804  MEMB      95              0.0000000000
     12688       101  POPC      C216           41.1724232896       12.0258966071       40.1149532410  MEMB      95              0.0000000000
     12689       101  POPC      H16R           41.0884411481       13.1413528695       40.0923049550  MEMB      95              0.0000000000
     12690       101  POPC      H16S           42.1848142069       11.8215621709       40.4982381356  MEMB      95              0.0000000000
     12691       101  POPC      C217           40.1268690948       11.4927410112       41.0944183387  MEMB      95              0.0000000000
     12692       101  POPC      H17R           39.3065470017       10.9879373826       40.5491680499  MEMB      95              0.0000000000
     12693       101  POPC      H17S           39.6796705036       12.3618904982       41.5991395887  MEMB      95              0.0000000000
     12694       101  POPC      C218           40.6404430719       10.5702471718       42.1872911820  MEMB      95              0.0000000000
     12695       101  POPC      H18R           41.0458873166        9.6411820535       41.7396398809  MEMB      95              0.0000000000
     12696       101  POPC      H18S           39.8232048659       10.3116719895       42.8928162874  MEMB      95              0.0000000000
     12697       101  POPC      H18T           41.4363308363       11.0794410340       42.7648803352  MEMB      95              0.0000000000
     12698       101  POPC      C33            35.5176302698        8.2828801073       30.9638761601  MEMB      95              0.0000000000
     12699       101  POPC      H3X            35.3726516867        9.1539969421       30.2873178650  MEMB      95              0.0000000000
     12700       101  POPC      H3Y            36.5963370316        8.1316112347       31.1248168208  MEMB      95              0.0000000000
     12701       101  POPC      C34            34.8592480412        8.5495053948       32.3325099175  MEMB      95              0.0000000000
     12702       101  POPC      H4X            35.1190676681        7.7282687654       33.0305350504  MEMB      95              0.0000000000
     12703       101  POPC      H4Y            33.7635463895        8.4915877964       32.1768705951  MEMB      95              0.0000000000
     12704       101  POPC      C35            35.1606528017        9.9066157898       32.9826175776  MEMB      95              0.0000000000
     12705       101  POPC      H5X            35.3132022221       10.6648381822       32.1807984774  MEMB      95              0.0000000000
     12706       101  POPC      H5Y            36.0991525612        9.8777297836       33.5757836853  MEMB      95              0.0000000000
     12707       101  POPC      C36            34.0128036490       10.3945850138       33.8851589101  MEMB      95              0.0000000000
     12708       101  POPC      H6X            33.0955870244       10.5386099631       33.2726143490  MEMB      95              0.0000000000
     12709       101  POPC      H6Y            34.3070079098       11.3939248858       34.2758263229  MEMB      95              0.0000000000
     12710       101  POPC      C37            33.6636707952        9.4981501806       35.0896499529  MEMB      95              0.0000000000
     12711       101  POPC      H7X            34.5583810015        8.9139747731       35.3932398314  MEMB      95              0.0000000000
     12712       101  POPC      H7Y            32.8668771960        8.7765667852       34.8108388226  MEMB      95              0.0000000000
     12713       101  POPC      C38            33.2204219364       10.3748514740       36.2739065284  MEMB      95              0.0000000000
     12714       101  POPC      H8X            32.5228244902       11.1398764131       35.9087789146  MEMB      95              0.0000000000
     12715       101  POPC      H8Y            34.1213416600       10.9219510821       36.6075268454  MEMB      95              0.0000000000
     12716       101  POPC      C39            32.5535546857        9.6856898666       37.4734164058  MEMB      95              0.0000000000
     12717       101  POPC      H9X            31.5964712236        9.2096086320       37.1669002079  MEMB      95              0.0000000000
     12718       101  POPC      H9Y            32.3125502331       10.4698829730       38.2279226839  MEMB      95              0.0000000000
     12719       101  POPC      C310           33.4784509164        8.6559067172       38.1097025094  MEMB      95              0.0000000000
     12720       101  POPC      H10X           34.5142995610        8.9204516891       37.8197554335  MEMB      95              0.0000000000
     12721       101  POPC      H10Y           33.2601021004        7.6576424904       37.6655052364  MEMB      95              0.0000000000
     12722       101  POPC      C311           33.4249883798        8.5469963361       39.6418991503  MEMB      95              0.0000000000
     12723       101  POPC      H11X           34.0358565942        7.6474255778       39.8554211517  MEMB      95              0.0000000000
     12724       101  POPC      H11Y           32.3980719492        8.3485224945       40.0018944914  MEMB      95              0.0000000000
     12725       101  POPC      C312           34.0852766145        9.6796565575       40.4514243301  MEMB      95              0.0000000000
     12726       101  POPC      H12X           33.3062561217       10.3185737007       40.9184252229  MEMB      95              0.0000000000
     12727       101  POPC      H12Y           34.6755503805       10.3152636319       39.7672302696  MEMB      95              0.0000000000
     12728       101  POPC      C313           35.0260294319        9.1094406184       41.5301581819  MEMB      95              0.0000000000
     12729       101  POPC      H13X           35.7392547294        8.4014605200       41.0553214049  MEMB      95              0.0000000000
     12730       101  POPC      H13Y           34.4074019384        8.4985944240       42.2196088368  MEMB      95              0.0000000000
     12731       101  POPC      C314           35.8243943818       10.1395969329       42.3489355597  MEMB      95              0.0000000000
     12732       101  POPC      H14X           35.7354389436       11.1399460287       41.8812070653  MEMB      95              0.0000000000
     12733       101  POPC      H14Y           36.9074503771        9.8770828189       42.3400620992  MEMB      95              0.0000000000
     12734       101  POPC      C315           35.3412767667       10.1838239684       43.8062989211  MEMB      95              0.0000000000
     12735       101  POPC      H15X           35.6372461056        9.2343577917       44.3048281715  MEMB      95              0.0000000000
     12736       101  POPC      H15Y           34.2320563257       10.2364764850       43.8036766076  MEMB      95              0.0000000000
     12737       101  POPC      C316           35.8519636090       11.3530944603       44.6359716165  MEMB      95              0.0000000000
     12738       101  POPC      H16X           35.3535603616       12.2962953509       44.3330693974  MEMB      95              0.0000000000
     12739       101  POPC      H16Y           36.9459989201       11.4657686103       44.5014230226  MEMB      95              0.0000000000
     12740       101  POPC      H16Z           35.6435357046       11.1840223536       45.7150850344  MEMB      95              0.0000000000
     12741       102  POPC      N              52.4458606681       46.1396299294       22.1485755876  MEMB      96              0.0000000000
     12742       102  POPC      C12            52.2050981493       46.7274514177       23.5212341023  MEMB      96              0.0000000000
     12743       102  POPC      H12A           53.1579142782       47.1465551935       23.8683655989  MEMB      96              0.0000000000
     12744       102  POPC      H12B           51.9428956229       45.9370410051       24.2034273269  MEMB      96              0.0000000000
     12745       102  POPC      C13            51.2197200357       45.5665561409       21.5190162717  MEMB      96              0.0000000000
     12746       102  POPC      H13A           51.4349467780       45.3517039182       20.4632792619  MEMB      96              0.0000000000
     12747       102  POPC      H13B           50.9536029821       44.6118437850       21.9532565054  MEMB      96              0.0000000000
     12748       102  POPC      H13C           50.3835296233       46.2473667829       21.5780709614  MEMB      96              0.0000000000
     12749       102  POPC      C14            52.9396881941       47.2331059513       21.2506854828  MEMB      96              0.0000000000
     12750       102  POPC      H14A           52.1114858873       47.9062930583       21.0515538258  MEMB      96              0.0000000000
     12751       102  POPC      H14B           53.6778571965       47.8491629573       21.7627612597  MEMB      96              0.0000000000
     12752       102  POPC      H14C           53.3843898161       46.8747796905       20.3314787494  MEMB      96              0.0000000000
     12753       102  POPC      C15            53.5119810405       45.1005673187       22.2188357141  MEMB      96              0.0000000000
     12754       102  POPC      H15A           53.6046332249       44.6202626282       21.2407940803  MEMB      96              0.0000000000
     12755       102  POPC      H15B           53.3267144991       44.3321746328       22.9568307204  MEMB      96              0.0000000000
     12756       102  POPC      H15C           54.4748110247       45.5529199725       22.4340016108  MEMB      96              0.0000000000
     12757       102  POPC      C11            51.1998817039       47.9007874367       23.6432899203  MEMB      96              0.0000000000
     12758       102  POPC      H11A           51.1001027929       48.1461109822       24.7202570274  MEMB      96              0.0000000000
     12759       102  POPC      H11B           50.1936731429       47.5861581558       23.2969155517  MEMB      96              0.0000000000
     12760       102  POPC      P              52.8631672760       49.9017786366       23.4077813552  MEMB      96              0.0000000000
     12761       102  POPC      O13            53.2096405242       50.8230236165       22.3040969771  MEMB      96              0.0000000000
     12762       102  POPC      O14            53.8840271848       48.9683067178       23.9420567327  MEMB      96              0.0000000000
     12763       102  POPC      O12            51.6137195101       49.0517418479       22.9067919099  MEMB      96              0.0000000000
     12764       102  POPC      O11            52.1997301098       50.7450221066       24.5481261440  MEMB      96              0.0000000000
     12765       102  POPC      C1             51.1095788142       51.5797073573       24.1410123583  MEMB      96              0.0000000000
     12766       102  POPC      HA             50.4289625640       51.1026742620       23.3926450355  MEMB      96              0.0000000000
     12767       102  POPC      HB             51.5110788187       52.5073644670       23.6867097064  MEMB      96              0.0000000000
     12768       102  POPC      C2             50.2343903290       51.9370246842       25.3524767615  MEMB      96              0.0000000000
     12769       102  POPC      HS             49.6123696542       52.8226918618       25.0906118494  MEMB      96              0.0000000000
     12770       102  POPC      O21            50.9798019684       52.2156744094       26.5350395668  MEMB      96              0.0000000000
     12771       102  POPC      C21            52.0092360481       53.0138150082       26.4757070822  MEMB      96              0.0000000000
     12772       102  POPC      O22            52.3101370763       53.7752131597       25.5712370801  MEMB      96              0.0000000000
     12773       102  POPC      C22            52.7076703460       52.9418676915       27.8315555767  MEMB      96              0.0000000000
     12774       102  POPC      H2R            52.0983583678       53.5254480378       28.5508289842  MEMB      96              0.0000000000
     12775       102  POPC      H2S            53.6992694771       53.4290914666       27.7232325311  MEMB      96              0.0000000000
     12776       102  POPC      C3             49.2694914402       50.7750981392       25.7008749065  MEMB      96              0.0000000000
     12777       102  POPC      HX             48.5859790791       50.6063762157       24.8422012316  MEMB      96              0.0000000000
     12778       102  POPC      HY             48.6813695892       51.2013012436       26.5178283226  MEMB      96              0.0000000000
     12779       102  POPC      O31            49.9180060982       49.5272107911       26.0503249830  MEMB      96              0.0000000000
     12780       102  POPC      C31            50.1292528655       49.2413129232       27.3379897859  MEMB      96              0.0000000000
     12781       102  POPC      O32            49.7419760561       49.8920132594       28.2829562815  MEMB      96              0.0000000000
     12782       102  POPC      C32            50.9353218892       47.9256263737       27.4580713637  MEMB      96              0.0000000000
     12783       102  POPC      H2X            51.9583046335       48.1258510549       27.0778598961  MEMB      96              0.0000000000
     12784       102  POPC      H2Y            50.4481106236       47.2001898165       26.7763583375  MEMB      96              0.0000000000
     12785       102  POPC      C23            52.8463616772       51.4809600847       28.3229563331  MEMB      96              0.0000000000
     12786       102  POPC      H3R            53.3225882013       50.8830793157       27.5083931653  MEMB      96              0.0000000000
     12787       102  POPC      H3S            51.8462294794       51.0496197055       28.5352217618  MEMB      96              0.0000000000
     12788       102  POPC      C24            53.7038527918       51.3295593079       29.5844589096  MEMB      96              0.0000000000
     12789       102  POPC      H4R            54.6208829269       51.9202065400       29.3957591605  MEMB      96              0.0000000000
     12790       102  POPC      H4S            54.0181712794       50.2702461027       29.6908954454  MEMB      96              0.0000000000
     12791       102  POPC      C25            53.0383749857       51.7926827651       30.8982297055  MEMB      96              0.0000000000
     12792       102  POPC      H5R            52.4609401342       52.7279996296       30.7412259250  MEMB      96              0.0000000000
     12793       102  POPC      H5S            53.8597226057       52.0315067171       31.6103006873  MEMB      96              0.0000000000
     12794       102  POPC      C26            52.1584270826       50.7278357436       31.5818950366  MEMB      96              0.0000000000
     12795       102  POPC      H6R            52.6823355361       49.7578816507       31.4563169726  MEMB      96              0.0000000000
     12796       102  POPC      H6S            51.1638053933       50.6588021047       31.0897347087  MEMB      96              0.0000000000
     12797       102  POPC      C27            52.0008241246       50.9472019470       33.1003194418  MEMB      96              0.0000000000
     12798       102  POPC      H7R            51.4042671604       51.8619482935       33.2995039953  MEMB      96              0.0000000000
     12799       102  POPC      H7S            53.0252364797       51.1208171283       33.5022414105  MEMB      96              0.0000000000
     12800       102  POPC      C28            51.4398160539       49.7303411120       33.8656688002  MEMB      96              0.0000000000
     12801       102  POPC      H8R            51.8687435756       49.7590679577       34.8902268800  MEMB      96              0.0000000000
     12802       102  POPC      H8S            51.8624399220       48.8194385322       33.3911642717  MEMB      96              0.0000000000
     12803       102  POPC      C29            49.9337363162       49.6323080352       33.9077863390  MEMB      96              0.0000000000
     12804       102  POPC      H91            49.4568358146       49.4877929873       32.9246112785  MEMB      96              0.0000000000
     12805       102  POPC      C210           49.1422119136       49.7626806899       34.9919599607  MEMB      96              0.0000000000
     12806       102  POPC      H101           48.0529447902       49.6960649853       34.8491124589  MEMB      96              0.0000000000
     12807       102  POPC      C211           49.5735184636       50.0420440948       36.4141763111  MEMB      96              0.0000000000
     12808       102  POPC      H11R           49.0657603046       50.9710196246       36.7488205809  MEMB      96              0.0000000000
     12809       102  POPC      H11S           50.6624181621       50.2551480695       36.4885670084  MEMB      96              0.0000000000
     12810       102  POPC      C212           49.2639633787       48.9644310199       37.4726347040  MEMB      96              0.0000000000
     12811       102  POPC      H12R           49.9056560388       48.0744469111       37.2847670259  MEMB      96              0.0000000000
     12812       102  POPC      H12S           48.2043878542       48.6325300458       37.3978862843  MEMB      96              0.0000000000
     12813       102  POPC      C213           49.5388113058       49.5175468106       38.8857955246  MEMB      96              0.0000000000
     12814       102  POPC      H13R           50.1736206059       50.4273444906       38.7976656692  MEMB      96              0.0000000000
     12815       102  POPC      H13S           50.1046392415       48.7717493351       39.4869540931  MEMB      96              0.0000000000
     12816       102  POPC      C214           48.2541486298       49.8868295553       39.6358950087  MEMB      96              0.0000000000
     12817       102  POPC      H14R           47.9155253114       48.9760914865       40.1504052670  MEMB      96              0.0000000000
     12818       102  POPC      H14S           47.4718684444       50.1814211604       38.9015709056  MEMB      96              0.0000000000
     12819       102  POPC      C215           48.3851178496       51.0121400005       40.6720640462  MEMB      96              0.0000000000
     12820       102  POPC      H15R           47.3523584077       51.3137959552       40.9696409434  MEMB      96              0.0000000000
     12821       102  POPC      H15S           48.8780360177       51.8889323355       40.2024310155  MEMB      96              0.0000000000
     12822       102  POPC      C216           49.1534108720       50.6327301626       41.9432342901  MEMB      96              0.0000000000
     12823       102  POPC      H16R           50.2431229977       50.6210936666       41.7216177378  MEMB      96              0.0000000000
     12824       102  POPC      H16S           48.8688274617       49.6059246686       42.2604066882  MEMB      96              0.0000000000
     12825       102  POPC      C217           48.8745843887       51.5914235101       43.1114809748  MEMB      96              0.0000000000
     12826       102  POPC      H17R           49.5168532400       51.3007607199       43.9704505611  MEMB      96              0.0000000000
     12827       102  POPC      H17S           47.8124651809       51.4691828142       43.4269706000  MEMB      96              0.0000000000
     12828       102  POPC      C218           49.1040506541       53.0657917151       42.8007356996  MEMB      96              0.0000000000
     12829       102  POPC      H18R           49.0070221518       53.6840964891       43.7181738538  MEMB      96              0.0000000000
     12830       102  POPC      H18S           48.3460047204       53.4182892282       42.0815768836  MEMB      96              0.0000000000
     12831       102  POPC      H18T           50.1068804472       53.2342110855       42.3539261905  MEMB      96              0.0000000000
     12832       102  POPC      C33            51.0050326365       47.2989908855       28.8890586409  MEMB      96              0.0000000000
     12833       102  POPC      H3X            50.8273239332       46.2021466078       28.8214750370  MEMB      96              0.0000000000
     12834       102  POPC      H3Y            50.2034966389       47.7240534792       29.5339538722  MEMB      96              0.0000000000
     12835       102  POPC      C34            52.3625213195       47.5016843189       29.5904575262  MEMB      96              0.0000000000
     12836       102  POPC      H4X            52.5830178282       48.5923620249       29.5319158762  MEMB      96              0.0000000000
     12837       102  POPC      H4Y            53.1746584710       46.9751348538       29.0454760069  MEMB      96              0.0000000000
     12838       102  POPC      C35            52.3686831751       47.1027319512       31.0820612583  MEMB      96              0.0000000000
     12839       102  POPC      H5X            51.4029147821       47.3994865996       31.5476754954  MEMB      96              0.0000000000
     12840       102  POPC      H5Y            53.1722395207       47.6808221920       31.5942599483  MEMB      96              0.0000000000
     12841       102  POPC      C36            52.6606238535       45.6231311115       31.3742657904  MEMB      96              0.0000000000
     12842       102  POPC      H6X            53.5855070705       45.3316357017       30.8243300549  MEMB      96              0.0000000000
     12843       102  POPC      H6Y            51.8271344053       44.9901709288       30.9991316930  MEMB      96              0.0000000000
     12844       102  POPC      C37            52.8957400089       45.3375123697       32.8741742630  MEMB      96              0.0000000000
     12845       102  POPC      H7X            53.7918244710       45.9011315506       33.2175254468  MEMB      96              0.0000000000
     12846       102  POPC      H7Y            53.1151472150       44.2530827931       32.9985459627  MEMB      96              0.0000000000
     12847       102  POPC      C38            51.7086439808       45.6954698933       33.7823644793  MEMB      96              0.0000000000
     12848       102  POPC      H8X            50.8072233360       45.1791512440       33.3825967591  MEMB      96              0.0000000000
     12849       102  POPC      H8Y            51.5056881111       46.7845684986       33.7551417550  MEMB      96              0.0000000000
     12850       102  POPC      C39            51.8918891546       45.2550075235       35.2448795614  MEMB      96              0.0000000000
     12851       102  POPC      H9X            52.0393630710       44.1594751650       35.2225860717  MEMB      96              0.0000000000
     12852       102  POPC      H9Y            50.9497159194       45.4628976308       35.8016918945  MEMB      96              0.0000000000
     12853       102  POPC      C310           53.0629812641       45.8904607782       36.0197844170  MEMB      96              0.0000000000
     12854       102  POPC      H10X           54.0307308009       45.5120965654       35.6226877354  MEMB      96              0.0000000000
     12855       102  POPC      H10Y           52.9904855501       45.5595785316       37.0807508734  MEMB      96              0.0000000000
     12856       102  POPC      C311           53.0557882880       47.4240699722       35.9664198424  MEMB      96              0.0000000000
     12857       102  POPC      H11X           52.0077201434       47.7814159824       36.0857213044  MEMB      96              0.0000000000
     12858       102  POPC      H11Y           53.4009350344       47.7344574040       34.9544586635  MEMB      96              0.0000000000
     12859       102  POPC      C312           53.9253829547       48.1198899424       37.0256794953  MEMB      96              0.0000000000
     12860       102  POPC      H12X           54.0125837512       49.1909600322       36.7278524326  MEMB      96              0.0000000000
     12861       102  POPC      H12Y           54.9514766211       47.6949257583       37.0361764582  MEMB      96              0.0000000000
     12862       102  POPC      C313           53.3145292407       48.0781273786       38.4349119562  MEMB      96              0.0000000000
     12863       102  POPC      H13X           53.5064236968       47.0854188888       38.8987379020  MEMB      96              0.0000000000
     12864       102  POPC      H13Y           52.2107680237       48.2007125383       38.3479972511  MEMB      96              0.0000000000
     12865       102  POPC      C314           53.8425406715       49.1980611888       39.3452240218  MEMB      96              0.0000000000
     12866       102  POPC      H14X           53.6233638501       50.1821907495       38.8703284743  MEMB      96              0.0000000000
     12867       102  POPC      H14Y           54.9475116976       49.1073542576       39.4398400778  MEMB      96              0.0000000000
     12868       102  POPC      C315           53.2003016170       49.1710358271       40.7384712115  MEMB      96              0.0000000000
     12869       102  POPC      H15X           53.3358214425       48.1535386837       41.1663651206  MEMB      96              0.0000000000
     12870       102  POPC      H15Y           52.1056734735       49.3467215786       40.6304164455  MEMB      96              0.0000000000
     12871       102  POPC      C316           53.7737909858       50.1974976094       41.7161373991  MEMB      96              0.0000000000
     12872       102  POPC      H16X           54.8388403298       49.9697797696       41.9375296616  MEMB      96              0.0000000000
     12873       102  POPC      H16Y           53.2114406024       50.1796577405       42.6713813243  MEMB      96              0.0000000000
     12874       102  POPC      H16Z           53.7062099341       51.2235399092       41.2942623773  MEMB      96              0.0000000000
     12875       103  POPC      N              55.2871164312       23.4902495446       21.6811878185  MEMB      97              0.0000000000
     12876       103  POPC      C12            54.3753164782       22.4789470474       22.3615249623  MEMB      97              0.0000000000
     12877       103  POPC      H12A           53.5721886892       22.2382341195       21.6712570514  MEMB      97              0.0000000000
     12878       103  POPC      H12B           53.9519581072       22.9517307839       23.2388389987  MEMB      97              0.0000000000
     12879       103  POPC      C13            56.1721713260       24.1459865533       22.6802252376  MEMB      97              0.0000000000
     12880       103  POPC      H13A           55.5952978483       24.7199790791       23.3917872084  MEMB      97              0.0000000000
     12881       103  POPC      H13B           56.7297976858       23.3818013890       23.2145318834  MEMB      97              0.0000000000
     12882       103  POPC      H13C           56.8448058195       24.8344993619       22.1800839052  MEMB      97              0.0000000000
     12883       103  POPC      C14            56.1596388984       22.8283651332       20.6610704416  MEMB      97              0.0000000000
     12884       103  POPC      H14A           56.7158078781       23.5665308131       20.0843958144  MEMB      97              0.0000000000
     12885       103  POPC      H14B           56.8561566232       22.1710726867       21.1727960358  MEMB      97              0.0000000000
     12886       103  POPC      H14C           55.5454523927       22.2411149927       19.9857976147  MEMB      97              0.0000000000
     12887       103  POPC      C15            54.5143001134       24.5596190416       20.9746782475  MEMB      97              0.0000000000
     12888       103  POPC      H15A           55.1242074191       25.4587741242       20.8614894701  MEMB      97              0.0000000000
     12889       103  POPC      H15B           53.6009243165       24.8208391253       21.4933452714  MEMB      97              0.0000000000
     12890       103  POPC      H15C           54.2484902184       24.2316600913       19.9744196033  MEMB      97              0.0000000000
     12891       103  POPC      C11            54.9759560180       21.1326983810       22.8551283882  MEMB      97              0.0000000000
     12892       103  POPC      H11A           55.2928876264       20.5439197963       21.9666514920  MEMB      97              0.0000000000
     12893       103  POPC      H11B           54.1607600088       20.5466134145       23.3470860018  MEMB      97              0.0000000000
     12894       103  POPC      P              56.1282432081       20.8799255634       25.2444662915  MEMB      97              0.0000000000
     12895       103  POPC      O13            57.4661423304       21.1904280823       25.7734122634  MEMB      97              0.0000000000
     12896       103  POPC      O14            55.6326628803       19.4870573005       25.3483724323  MEMB      97              0.0000000000
     12897       103  POPC      O12            56.0967831518       21.3261049883       23.7156244455  MEMB      97              0.0000000000
     12898       103  POPC      O11            55.0626269428       21.8711254570       25.8745863519  MEMB      97              0.0000000000
     12899       103  POPC      C1             55.3692868347       23.2680441777       25.9736792268  MEMB      97              0.0000000000
     12900       103  POPC      HA             54.5336564552       23.8509896166       25.5218468112  MEMB      97              0.0000000000
     12901       103  POPC      HB             56.3004106697       23.5671168404       25.4337084312  MEMB      97              0.0000000000
     12902       103  POPC      C2             55.5002184578       23.7263349625       27.4507576916  MEMB      97              0.0000000000
     12903       103  POPC      HS             55.4671928266       24.8443947031       27.4466488237  MEMB      97              0.0000000000
     12904       103  POPC      O21            56.6977459393       23.2654732186       28.0854724778  MEMB      97              0.0000000000
     12905       103  POPC      C21            57.7684215005       23.9440930441       27.7757759260  MEMB      97              0.0000000000
     12906       103  POPC      O22            57.8484379686       24.8319453863       26.9392225738  MEMB      97              0.0000000000
     12907       103  POPC      C22            58.8471404870       23.6151605207       28.7978025322  MEMB      97              0.0000000000
     12908       103  POPC      H2R            59.8322274131       23.8670376901       28.3630523047  MEMB      97              0.0000000000
     12909       103  POPC      H2S            58.8184753401       22.5306931466       29.0260070252  MEMB      97              0.0000000000
     12910       103  POPC      C3             54.3327938634       23.2635891166       28.3353804999  MEMB      97              0.0000000000
     12911       103  POPC      HX             54.5142901567       22.1957556854       28.6151732488  MEMB      97              0.0000000000
     12912       103  POPC      HY             53.3999050867       23.3021415813       27.7424849099  MEMB      97              0.0000000000
     12913       103  POPC      O31            54.2631776453       24.1714627665       29.4550745151  MEMB      97              0.0000000000
     12914       103  POPC      C31            53.9640769860       23.6299617267       30.6213293267  MEMB      97              0.0000000000
     12915       103  POPC      O32            53.6367899169       22.4709935422       30.8044337243  MEMB      97              0.0000000000
     12916       103  POPC      C32            54.0831304628       24.6558737710       31.7621017652  MEMB      97              0.0000000000
     12917       103  POPC      H2X            54.8308279414       24.2044499008       32.4439277315  MEMB      97              0.0000000000
     12918       103  POPC      H2Y            53.0972809021       24.6750468108       32.2727711439  MEMB      97              0.0000000000
     12919       103  POPC      C23            58.5780235469       24.4405903133       30.0766034412  MEMB      97              0.0000000000
     12920       103  POPC      H3R            57.6663815319       24.0231116204       30.5607372237  MEMB      97              0.0000000000
     12921       103  POPC      H3S            58.3635161671       25.5031903478       29.8138253574  MEMB      97              0.0000000000
     12922       103  POPC      C24            59.7450989725       24.4466211757       31.0667565898  MEMB      97              0.0000000000
     12923       103  POPC      H4R            60.5909442468       25.0150791404       30.6125533005  MEMB      97              0.0000000000
     12924       103  POPC      H4S            60.1054283860       23.4070125085       31.2247940065  MEMB      97              0.0000000000
     12925       103  POPC      C25            59.3760570907       25.0933327929       32.4137726299  MEMB      97              0.0000000000
     12926       103  POPC      H5R            59.0541939109       26.1448262432       32.2276752745  MEMB      97              0.0000000000
     12927       103  POPC      H5S            60.2973247524       25.1178384807       33.0407310023  MEMB      97              0.0000000000
     12928       103  POPC      C26            58.2740241059       24.3652607782       33.2109453414  MEMB      97              0.0000000000
     12929       103  POPC      H6R            57.2989341424       24.4502538410       32.6842318662  MEMB      97              0.0000000000
     12930       103  POPC      H6S            58.1704783745       24.8681281700       34.1989338158  MEMB      97              0.0000000000
     12931       103  POPC      C27            58.5886378661       22.8795553488       33.4350493860  MEMB      97              0.0000000000
     12932       103  POPC      H7R            59.5810472412       22.8255557853       33.9393557155  MEMB      97              0.0000000000
     12933       103  POPC      H7S            58.6795899981       22.3834814477       32.4453398744  MEMB      97              0.0000000000
     12934       103  POPC      C28            57.5714316500       22.0994497286       34.2951747955  MEMB      97              0.0000000000
     12935       103  POPC      H8R            57.1156890834       22.8040624620       35.0171253229  MEMB      97              0.0000000000
     12936       103  POPC      H8S            58.1448790739       21.3680518123       34.9078246780  MEMB      97              0.0000000000
     12937       103  POPC      C29            56.5382538231       21.3379505683       33.4947518902  MEMB      97              0.0000000000
     12938       103  POPC      H91            56.9586098681       20.6040883269       32.7898123911  MEMB      97              0.0000000000
     12939       103  POPC      C210           55.2002494812       21.4713707316       33.5520787060  MEMB      97              0.0000000000
     12940       103  POPC      H101           54.5734386368       20.8913397334       32.8528198113  MEMB      97              0.0000000000
     12941       103  POPC      C211           54.4499594438       22.4274170006       34.4409380695  MEMB      97              0.0000000000
     12942       103  POPC      H11R           53.3851099911       22.4956027468       34.1209870254  MEMB      97              0.0000000000
     12943       103  POPC      H11S           54.8799323356       23.4409725214       34.3224064516  MEMB      97              0.0000000000
     12944       103  POPC      C212           54.5045984794       22.1082372624       35.9419509073  MEMB      97              0.0000000000
     12945       103  POPC      H12R           54.1712470484       23.0176764013       36.4915852335  MEMB      97              0.0000000000
     12946       103  POPC      H12S           55.5466739149       21.8917541253       36.2582552682  MEMB      97              0.0000000000
     12947       103  POPC      C213           53.5982510383       20.9424528486       36.3219775426  MEMB      97              0.0000000000
     12948       103  POPC      H13R           53.8746353626       20.0510676238       35.7131998139  MEMB      97              0.0000000000
     12949       103  POPC      H13S           52.5589221689       21.2114179940       36.0388098913  MEMB      97              0.0000000000
     12950       103  POPC      C214           53.6516175655       20.5542495632       37.8056300683  MEMB      97              0.0000000000
     12951       103  POPC      H14R           54.5484320039       19.9217075881       37.9879325277  MEMB      97              0.0000000000
     12952       103  POPC      H14S           52.7521343856       19.9405001570       37.9811303104  MEMB      97              0.0000000000
     12953       103  POPC      C215           53.6337642112       21.6935663493       38.8362163344  MEMB      97              0.0000000000
     12954       103  POPC      H15R           52.7336299703       22.3259115231       38.6761102540  MEMB      97              0.0000000000
     12955       103  POPC      H15S           54.5294757594       22.3357026055       38.7050140911  MEMB      97              0.0000000000
     12956       103  POPC      C216           53.6214633041       21.1503941920       40.2768738680  MEMB      97              0.0000000000
     12957       103  POPC      H16R           54.5274949986       20.5243378491       40.4357811663  MEMB      97              0.0000000000
     12958       103  POPC      H16S           52.7409761739       20.4829444626       40.4016219317  MEMB      97              0.0000000000
     12959       103  POPC      C217           53.5739275457       22.2611479742       41.3371285629  MEMB      97              0.0000000000
     12960       103  POPC      H17R           52.7329232032       22.9492138734       41.0961175971  MEMB      97              0.0000000000
     12961       103  POPC      H17S           54.5126523060       22.8574494572       41.2645251880  MEMB      97              0.0000000000
     12962       103  POPC      C218           53.4006733912       21.7511398355       42.7740462578  MEMB      97              0.0000000000
     12963       103  POPC      H18R           52.4708272255       21.1594357932       42.8854372723  MEMB      97              0.0000000000
     12964       103  POPC      H18S           53.3481896240       22.6066152605       43.4820893162  MEMB      97              0.0000000000
     12965       103  POPC      H18T           54.2498234958       21.0985053176       43.0681296712  MEMB      97              0.0000000000
     12966       103  POPC      C33            54.5498912797       26.1077087741       31.4611781537  MEMB      97              0.0000000000
     12967       103  POPC      H3X            53.9030102215       26.5642815838       30.6793039291  MEMB      97              0.0000000000
     12968       103  POPC      H3Y            55.5916333818       26.0643566529       31.0692890383  MEMB      97              0.0000000000
     12969       103  POPC      C34            54.5309475161       27.0184103605       32.7200930888  MEMB      97              0.0000000000
     12970       103  POPC      H4X            53.4991548741       27.4055918517       32.8460390646  MEMB      97              0.0000000000
     12971       103  POPC      H4Y            55.1886265332       27.8955312282       32.5497583293  MEMB      97              0.0000000000
     12972       103  POPC      C35            54.9443033851       26.2839935639       34.0118399151  MEMB      97              0.0000000000
     12973       103  POPC      H5X            55.9604631065       25.8625374598       33.8546801206  MEMB      97              0.0000000000
     12974       103  POPC      H5Y            54.2351293644       25.4413768497       34.1694162858  MEMB      97              0.0000000000
     12975       103  POPC      C36            54.9235669496       27.0778944774       35.3268443747  MEMB      97              0.0000000000
     12976       103  POPC      H6X            53.9468865745       27.5937123950       35.4544863626  MEMB      97              0.0000000000
     12977       103  POPC      H6Y            55.7044337245       27.8564224672       35.3225689433  MEMB      97              0.0000000000
     12978       103  POPC      C37            55.1800449439       26.1963665606       36.5669818537  MEMB      97              0.0000000000
     12979       103  POPC      H7X            54.2829915479       25.5753507228       36.7813492474  MEMB      97              0.0000000000
     12980       103  POPC      H7Y            55.3393322134       26.8640772848       37.4416326407  MEMB      97              0.0000000000
     12981       103  POPC      C38            56.3908307468       25.2579319806       36.4464581410  MEMB      97              0.0000000000
     12982       103  POPC      H8X            57.2875770882       25.8453978838       36.1531603507  MEMB      97              0.0000000000
     12983       103  POPC      H8Y            56.2133673946       24.5227828019       35.6375144280  MEMB      97              0.0000000000
     12984       103  POPC      C39            56.6685532525       24.4923256786       37.7482478983  MEMB      97              0.0000000000
     12985       103  POPC      H9X            56.0008073824       23.6087880974       37.8057130060  MEMB      97              0.0000000000
     12986       103  POPC      H9Y            56.3996545517       25.1371582354       38.6103736877  MEMB      97              0.0000000000
     12987       103  POPC      C310           58.1312419167       24.0474827035       37.8946432319  MEMB      97              0.0000000000
     12988       103  POPC      H10X           58.5644015120       24.5122757073       38.8071023883  MEMB      97              0.0000000000
     12989       103  POPC      H10Y           58.7127665778       24.4343097154       37.0283188232  MEMB      97              0.0000000000
     12990       103  POPC      C311           58.3172828282       22.5253131271       37.9565102378  MEMB      97              0.0000000000
     12991       103  POPC      H11X           59.4033583709       22.2969359518       37.8545127629  MEMB      97              0.0000000000
     12992       103  POPC      H11Y           57.7950623398       22.0628855069       37.0917140522  MEMB      97              0.0000000000
     12993       103  POPC      C312           57.8051615311       21.8696342955       39.2497353975  MEMB      97              0.0000000000
     12994       103  POPC      H12X           57.9856737396       20.7730380692       39.1644780347  MEMB      97              0.0000000000
     12995       103  POPC      H12Y           56.7101903579       22.0187598311       39.3574346053  MEMB      97              0.0000000000
     12996       103  POPC      C313           58.5269424159       22.3807754544       40.5009100682  MEMB      97              0.0000000000
     12997       103  POPC      H13X           58.2137777079       23.4164450863       40.7534310036  MEMB      97              0.0000000000
     12998       103  POPC      H13Y           59.6103789824       22.3943189070       40.2576438800  MEMB      97              0.0000000000
     12999       103  POPC      C314           58.3860421686       21.4629644390       41.7178850248  MEMB      97              0.0000000000
     13000       103  POPC      H14X           59.1585121495       21.7614159602       42.4549979827  MEMB      97              0.0000000000
     13001       103  POPC      H14Y           58.6107981850       20.4241352063       41.3915626896  MEMB      97              0.0000000000
     13002       103  POPC      C315           57.0113508278       21.4658732321       42.3948741447  MEMB      97              0.0000000000
     13003       103  POPC      H15X           56.9439776870       20.5620272943       43.0409745019  MEMB      97              0.0000000000
     13004       103  POPC      H15Y           56.2333197469       21.3535807103       41.6114699114  MEMB      97              0.0000000000
     13005       103  POPC      C316           56.7188371530       22.6949682876       43.2615233763  MEMB      97              0.0000000000
     13006       103  POPC      H16X           56.6870421990       23.6137426922       42.6393197013  MEMB      97              0.0000000000
     13007       103  POPC      H16Y           57.4817836707       22.8172388528       44.0532933094  MEMB      97              0.0000000000
     13008       103  POPC      H16Z           55.7438972181       22.5845323057       43.7776096747  MEMB      97              0.0000000000
     13009       104  POPC      N              10.5993518526       45.9385510515       22.0085273531  MEMB      98              0.0000000000
     13010       104  POPC      C12            10.1637081479       44.4943427701       21.8318728285  MEMB      98              0.0000000000
     13011       104  POPC      H12A           11.0131356089       43.8419555467       21.9639971225  MEMB      98              0.0000000000
     13012       104  POPC      H12B            9.8252870286       44.3918057091       20.8063218324  MEMB      98              0.0000000000
     13013       104  POPC      C13             9.5370631376       46.7705669891       21.3601384631  MEMB      98              0.0000000000
     13014       104  POPC      H13A            9.5481155449       46.6651471337       20.2809989593  MEMB      98              0.0000000000
     13015       104  POPC      H13B            8.5588401575       46.3961845285       21.6859383813  MEMB      98              0.0000000000
     13016       104  POPC      H13C            9.6145801737       47.8043869203       21.6110329188  MEMB      98              0.0000000000
     13017       104  POPC      C14            10.6513848382       46.2228114239       23.4776705168  MEMB      98              0.0000000000
     13018       104  POPC      H14A            9.6518246371       46.0411618435       23.8936002777  MEMB      98              0.0000000000
     13019       104  POPC      H14B           11.3315977743       45.5535581064       23.9858350881  MEMB      98              0.0000000000
     13020       104  POPC      H14C           10.9280524979       47.2400849409       23.6832914388  MEMB      98              0.0000000000
     13021       104  POPC      C15            11.8740683064       46.2292652363       21.3156735623  MEMB      98              0.0000000000
     13022       104  POPC      H15A           12.0708285911       47.2997493173       21.3124744913  MEMB      98              0.0000000000
     13023       104  POPC      H15B           11.8266079505       45.9263862005       20.2683313278  MEMB      98              0.0000000000
     13024       104  POPC      H15C           12.7302167093       45.7663370937       21.7802515251  MEMB      98              0.0000000000
     13025       104  POPC      C11             9.0144380493       44.0277331735       22.7715112042  MEMB      98              0.0000000000
     13026       104  POPC      H11A            9.4566749190       43.7049051573       23.7437633975  MEMB      98              0.0000000000
     13027       104  POPC      H11B            8.5022366134       43.1477849730       22.3170851240  MEMB      98              0.0000000000
     13028       104  POPC      P               7.0651230227       45.1034375929       24.1847175223  MEMB      98              0.0000000000
     13029       104  POPC      O13             7.3781790707       44.0370289308       25.1424286573  MEMB      98              0.0000000000
     13030       104  POPC      O14             5.7407199069       45.1421829908       23.5161843864  MEMB      98              0.0000000000
     13031       104  POPC      O12             8.0776739762       45.0814249855       22.9701331174  MEMB      98              0.0000000000
     13032       104  POPC      O11             7.3465721218       46.5385265121       24.8296905240  MEMB      98              0.0000000000
     13033       104  POPC      C1              6.2143303077       47.3252108040       25.2587189850  MEMB      98              0.0000000000
     13034       104  POPC      HA              5.2185316648       46.9635219176       24.9072969004  MEMB      98              0.0000000000
     13035       104  POPC      HB              6.3286509621       48.3351971157       24.8017602853  MEMB      98              0.0000000000
     13036       104  POPC      C2              6.1021950385       47.5717897729       26.8071555768  MEMB      98              0.0000000000
     13037       104  POPC      HS              5.6066216436       48.5591835195       26.9235146989  MEMB      98              0.0000000000
     13038       104  POPC      O21             7.3765300596       47.5427054299       27.4819706528  MEMB      98              0.0000000000
     13039       104  POPC      C21             8.1585627626       48.5167706309       27.0821678240  MEMB      98              0.0000000000
     13040       104  POPC      O22             7.8464912891       49.4246897563       26.3291970192  MEMB      98              0.0000000000
     13041       104  POPC      C22             9.5687856931       48.4567706176       27.6463003331  MEMB      98              0.0000000000
     13042       104  POPC      H2R             9.8429330910       49.5309337436       27.7244978887  MEMB      98              0.0000000000
     13043       104  POPC      H2S            10.2211785890       47.9771177917       26.8879552969  MEMB      98              0.0000000000
     13044       104  POPC      C3              5.1563801435       46.5801443519       27.5476533199  MEMB      98              0.0000000000
     13045       104  POPC      HX              4.2108479852       46.5498074801       26.9617946605  MEMB      98              0.0000000000
     13046       104  POPC      HY              4.8822349206       47.0232136310       28.5354338754  MEMB      98              0.0000000000
     13047       104  POPC      O31             5.6731405312       45.2383965338       27.6663576099  MEMB      98              0.0000000000
     13048       104  POPC      C31             6.3412871192       44.9944369871       28.7933157645  MEMB      98              0.0000000000
     13049       104  POPC      O32             6.5127742991       45.8012312693       29.6889466761  MEMB      98              0.0000000000
     13050       104  POPC      C32             6.6827669086       43.5204129264       28.9074302912  MEMB      98              0.0000000000
     13051       104  POPC      H2X             7.2371528602       43.2226909125       27.9927966818  MEMB      98              0.0000000000
     13052       104  POPC      H2Y             5.7225913806       42.9672542446       28.9295743444  MEMB      98              0.0000000000
     13053       104  POPC      C23             9.8324789436       47.8461245833       29.0379887666  MEMB      98              0.0000000000
     13054       104  POPC      H3R             9.7211404769       46.7467967869       28.9642420954  MEMB      98              0.0000000000
     13055       104  POPC      H3S             9.0892703897       48.2005649276       29.7830690046  MEMB      98              0.0000000000
     13056       104  POPC      C24            11.2450262536       48.2853409655       29.4670597015  MEMB      98              0.0000000000
     13057       104  POPC      H4R            11.1758454480       49.3298902184       29.8530108427  MEMB      98              0.0000000000
     13058       104  POPC      H4S            11.9029169925       48.2843343181       28.5811044783  MEMB      98              0.0000000000
     13059       104  POPC      C25            12.0210970437       47.4335763117       30.4739256814  MEMB      98              0.0000000000
     13060       104  POPC      H5R            11.5518823055       47.6141885184       31.4558003842  MEMB      98              0.0000000000
     13061       104  POPC      H5S            13.0655865340       47.8212830916       30.5378834172  MEMB      98              0.0000000000
     13062       104  POPC      C26            12.1008526067       45.9352847081       30.1343248275  MEMB      98              0.0000000000
     13063       104  POPC      H6R            12.8519294417       45.7682433502       29.3277582776  MEMB      98              0.0000000000
     13064       104  POPC      H6S            11.1285107225       45.5733700461       29.7403330237  MEMB      98              0.0000000000
     13065       104  POPC      C27            12.4371982313       45.0636133385       31.3537693766  MEMB      98              0.0000000000
     13066       104  POPC      H7R            13.4936858988       45.2419401637       31.6513034710  MEMB      98              0.0000000000
     13067       104  POPC      H7S            12.3434110435       43.9928443709       31.0592303882  MEMB      98              0.0000000000
     13068       104  POPC      C28            11.5360388734       45.3310656931       32.5814706175  MEMB      98              0.0000000000
     13069       104  POPC      H8R            11.8613410566       46.2750134654       33.0558988968  MEMB      98              0.0000000000
     13070       104  POPC      H8S            11.7438301431       44.5337129679       33.3208511058  MEMB      98              0.0000000000
     13071       104  POPC      C29            10.0676385814       45.3894081684       32.2272869155  MEMB      98              0.0000000000
     13072       104  POPC      H91             9.7348621749       44.5490190746       31.6061524044  MEMB      98              0.0000000000
     13073       104  POPC      C210            9.1644838696       46.3546143837       32.5004502471  MEMB      98              0.0000000000
     13074       104  POPC      H101            8.1395404779       46.2297993635       32.1101466698  MEMB      98              0.0000000000
     13075       104  POPC      C211            9.3844331497       47.6534042929       33.2280946652  MEMB      98              0.0000000000
     13076       104  POPC      H11R            8.8188125908       48.4535958198       32.7116688576  MEMB      98              0.0000000000
     13077       104  POPC      H11S           10.4433001302       47.9559393169       33.1547803810  MEMB      98              0.0000000000
     13078       104  POPC      C212            8.9885713541       47.6821400432       34.7226040142  MEMB      98              0.0000000000
     13079       104  POPC      H12R            9.6978969806       47.0446741730       35.2948377293  MEMB      98              0.0000000000
     13080       104  POPC      H12S            7.9664465728       47.2645275213       34.8530948245  MEMB      98              0.0000000000
     13081       104  POPC      C213            9.0114386294       49.1193993836       35.2730366364  MEMB      98              0.0000000000
     13082       104  POPC      H13R            7.9870722880       49.5493758870       35.2276312939  MEMB      98              0.0000000000
     13083       104  POPC      H13S            9.6399054473       49.7099350695       34.5708113188  MEMB      98              0.0000000000
     13084       104  POPC      C214            9.6126411397       49.3088781084       36.6790541589  MEMB      98              0.0000000000
     13085       104  POPC      H14R           10.1740354168       50.2717388839       36.7027707482  MEMB      98              0.0000000000
     13086       104  POPC      H14S           10.3440041111       48.4999095187       36.8894903224  MEMB      98              0.0000000000
     13087       104  POPC      C215            8.5442405324       49.3736988719       37.7763748301  MEMB      98              0.0000000000
     13088       104  POPC      H15R            7.7900128261       48.5951655462       37.5502802514  MEMB      98              0.0000000000
     13089       104  POPC      H15S            8.0027769161       50.3407597157       37.7453868876  MEMB      98              0.0000000000
     13090       104  POPC      C216            9.0718277309       49.1542959007       39.2010183923  MEMB      98              0.0000000000
     13091       104  POPC      H16R            9.4615349402       48.1168721262       39.2783396049  MEMB      98              0.0000000000
     13092       104  POPC      H16S            8.2047015547       49.2567020539       39.8934354547  MEMB      98              0.0000000000
     13093       104  POPC      C217           10.1780881537       50.1061246930       39.6731534286  MEMB      98              0.0000000000
     13094       104  POPC      H17R           10.2373009506       50.9849302112       38.9951761576  MEMB      98              0.0000000000
     13095       104  POPC      H17S           11.1481642151       49.5694260198       39.5988928269  MEMB      98              0.0000000000
     13096       104  POPC      C218            9.9750487922       50.5826545343       41.1154263200  MEMB      98              0.0000000000
     13097       104  POPC      H18R           10.7282024008       51.3529613439       41.3902540586  MEMB      98              0.0000000000
     13098       104  POPC      H18S           10.0558078649       49.7307429689       41.8248171402  MEMB      98              0.0000000000
     13099       104  POPC      H18T            8.9648018500       51.0312782181       41.2264333182  MEMB      98              0.0000000000
     13100       104  POPC      C33             7.4789959613       43.1953457891       30.1978866842  MEMB      98              0.0000000000
     13101       104  POPC      H3X             8.2948681812       43.9384878510       30.3156062587  MEMB      98              0.0000000000
     13102       104  POPC      H3Y             7.9510660778       42.1932213707       30.0711489886  MEMB      98              0.0000000000
     13103       104  POPC      C34             6.5777624713       43.1484350281       31.4453553535  MEMB      98              0.0000000000
     13104       104  POPC      H4X             6.0276530268       42.1832389266       31.4352944483  MEMB      98              0.0000000000
     13105       104  POPC      H4Y             5.8211632123       43.9622571723       31.3754962881  MEMB      98              0.0000000000
     13106       104  POPC      C35             7.2698669885       43.3207731390       32.8116348784  MEMB      98              0.0000000000
     13107       104  POPC      H5X             6.5076803506       43.1269531124       33.5959877976  MEMB      98              0.0000000000
     13108       104  POPC      H5Y             7.5600243051       44.3771736371       32.9529277817  MEMB      98              0.0000000000
     13109       104  POPC      C36             8.4797448195       42.4124908203       33.0745745787  MEMB      98              0.0000000000
     13110       104  POPC      H6X             9.3681398920       42.7337271886       32.4969029597  MEMB      98              0.0000000000
     13111       104  POPC      H6Y             8.2403148853       41.3946812374       32.7139849108  MEMB      98              0.0000000000
     13112       104  POPC      C37             8.8359739243       42.3279938440       34.5674120068  MEMB      98              0.0000000000
     13113       104  POPC      H7X             9.5142975315       41.4594390709       34.7290232967  MEMB      98              0.0000000000
     13114       104  POPC      H7Y             7.9100701592       42.1584013110       35.1568428770  MEMB      98              0.0000000000
     13115       104  POPC      C38             9.5293945703       43.5756382129       35.1143326471  MEMB      98              0.0000000000
     13116       104  POPC      H8X             8.9615765333       44.4852835119       34.8317153014  MEMB      98              0.0000000000
     13117       104  POPC      H8Y            10.5252794433       43.6400934423       34.6326888327  MEMB      98              0.0000000000
     13118       104  POPC      C39             9.7610902467       43.5229901462       36.6303346474  MEMB      98              0.0000000000
     13119       104  POPC      H9X            10.5912128127       44.2221172887       36.8744788304  MEMB      98              0.0000000000
     13120       104  POPC      H9Y            10.0804193649       42.4931128338       36.9076510770  MEMB      98              0.0000000000
     13121       104  POPC      C310            8.5498046757       43.9285209808       37.4741414456  MEMB      98              0.0000000000
     13122       104  POPC      H10X            8.7663985177       43.6862419996       38.5381346046  MEMB      98              0.0000000000
     13123       104  POPC      H10Y            7.6691175128       43.3316867246       37.1572709740  MEMB      98              0.0000000000
     13124       104  POPC      C311            8.2293011327       45.4229985999       37.3670759101  MEMB      98              0.0000000000
     13125       104  POPC      H11X            8.1718638256       45.6976549610       36.2947677527  MEMB      98              0.0000000000
     13126       104  POPC      H11Y            9.0472830117       46.0255915438       37.8140197545  MEMB      98              0.0000000000
     13127       104  POPC      C312            6.8858560104       45.8113226620       37.9865191900  MEMB      98              0.0000000000
     13128       104  POPC      H12X            6.0923536306       45.3404574767       37.3729629145  MEMB      98              0.0000000000
     13129       104  POPC      H12Y            6.7588097008       46.9063041707       37.8820410262  MEMB      98              0.0000000000
     13130       104  POPC      C313            6.7185653391       45.4464627922       39.4648649280  MEMB      98              0.0000000000
     13131       104  POPC      H13X            7.0389286137       44.4007663119       39.6537794950  MEMB      98              0.0000000000
     13132       104  POPC      H13Y            5.6376368404       45.5130716878       39.7251411904  MEMB      98              0.0000000000
     13133       104  POPC      C314            7.4807322781       46.4238346513       40.3626434073  MEMB      98              0.0000000000
     13134       104  POPC      H14X            7.0461454423       47.4360844833       40.1930311551  MEMB      98              0.0000000000
     13135       104  POPC      H14Y            8.5508357385       46.4436874832       40.0665126357  MEMB      98              0.0000000000
     13136       104  POPC      C315            7.3923699082       46.0945441660       41.8506092243  MEMB      98              0.0000000000
     13137       104  POPC      H15X            6.3311885895       45.8817914705       42.0818611980  MEMB      98              0.0000000000
     13138       104  POPC      H15Y            7.7186435947       46.9838921340       42.4382234922  MEMB      98              0.0000000000
     13139       104  POPC      C316            8.2206435178       44.8868212593       42.2693623324  MEMB      98              0.0000000000
     13140       104  POPC      H16X            7.8270941427       43.9749930624       41.7752674622  MEMB      98              0.0000000000
     13141       104  POPC      H16Y            8.1646817348       44.7423207923       43.3699598744  MEMB      98              0.0000000000
     13142       104  POPC      H16Z            9.2844661691       45.0182887256       41.9768699235  MEMB      98              0.0000000000
     13143       105  POPC      N              28.2538221164       60.3394884699       24.6086104524  MEMB      99              0.0000000000
     13144       105  POPC      C12            29.6203667639       59.6851853749       24.7747644867  MEMB      99              0.0000000000
     13145       105  POPC      H12A           29.7263953670       59.3212443996       25.7856629924  MEMB      99              0.0000000000
     13146       105  POPC      H12B           30.4004013860       60.4460763721       24.6457055360  MEMB      99              0.0000000000
     13147       105  POPC      C13            28.1270292940       60.8488007121       23.2041073536  MEMB      99              0.0000000000
     13148       105  POPC      H13A           28.2198060365       60.0042314204       22.5165357378  MEMB      99              0.0000000000
     13149       105  POPC      H13B           27.1907945616       61.3498998416       23.0339698686  MEMB      99              0.0000000000
     13150       105  POPC      H13C           28.9507823996       61.4990943244       22.9476514479  MEMB      99              0.0000000000
     13151       105  POPC      C14            27.1631261322       59.3320775911       24.8231381494  MEMB      99              0.0000000000
     13152       105  POPC      H14A           26.1819622075       59.7566141196       24.6557357089  MEMB      99              0.0000000000
     13153       105  POPC      H14B           27.2723628260       58.5122579039       24.1152944100  MEMB      99              0.0000000000
     13154       105  POPC      H14C           27.1731646271       58.9322132390       25.8290416985  MEMB      99              0.0000000000
     13155       105  POPC      C15            28.1017910681       61.4671048648       25.5840391566  MEMB      99              0.0000000000
     13156       105  POPC      H15A           28.2211246650       61.1146537073       26.6023925297  MEMB      99              0.0000000000
     13157       105  POPC      H15B           27.1236901109       61.9247444915       25.5008177647  MEMB      99              0.0000000000
     13158       105  POPC      H15C           28.8620759879       62.2323953276       25.4445350008  MEMB      99              0.0000000000
     13159       105  POPC      C11            30.0045062894       58.5491969955       23.8003640004  MEMB      99              0.0000000000
     13160       105  POPC      H11A           29.1982854262       57.7855320503       23.7534002099  MEMB      99              0.0000000000
     13161       105  POPC      H11B           30.9115868435       58.0252987715       24.2000986835  MEMB      99              0.0000000000
     13162       105  POPC      P              31.6816334866       59.3961047464       21.9785904924  MEMB      99              0.0000000000
     13163       105  POPC      O13            31.5915870785       60.3413691130       20.8321279439  MEMB      99              0.0000000000
     13164       105  POPC      O14            32.3526179311       58.0986876078       21.7488217874  MEMB      99              0.0000000000
     13165       105  POPC      O12            30.2173314456       59.0878237841       22.4961483781  MEMB      99              0.0000000000
     13166       105  POPC      O11            32.2875655840       60.1149754665       23.2362742860  MEMB      99              0.0000000000
     13167       105  POPC      C1             32.0639383571       61.5183446051       23.3315271407  MEMB      99              0.0000000000
     13168       105  POPC      HA             31.0138601263       61.7998139683       23.0845529885  MEMB      99              0.0000000000
     13169       105  POPC      HB             32.7453210729       62.0555119198       22.6292497952  MEMB      99              0.0000000000
     13170       105  POPC      C2             32.3755461719       62.0405723507       24.7488373424  MEMB      99              0.0000000000
     13171       105  POPC      HS             33.4670049592       61.9307310329       24.8689174816  MEMB      99              0.0000000000
     13172       105  POPC      O21            31.6771828867       61.3205165872       25.7825661500  MEMB      99              0.0000000000
     13173       105  POPC      C21            32.4118377541       60.4102920249       26.4130275762  MEMB      99              0.0000000000
     13174       105  POPC      O22            33.4134662613       59.8562720390       26.0157691767  MEMB      99              0.0000000000
     13175       105  POPC      C22            31.7723737592       60.1167513841       27.7706773234  MEMB      99              0.0000000000
     13176       105  POPC      H2R            31.5418308176       59.0340775173       27.8166830532  MEMB      99              0.0000000000
     13177       105  POPC      H2S            30.8306061827       60.6924082081       27.8692495413  MEMB      99              0.0000000000
     13178       105  POPC      C3             31.9992954280       63.5544332277       24.7891390917  MEMB      99              0.0000000000
     13179       105  POPC      HX             30.9019104038       63.6745189926       24.6535110179  MEMB      99              0.0000000000
     13180       105  POPC      HY             32.5002754356       64.0095026832       23.9127653868  MEMB      99              0.0000000000
     13181       105  POPC      O31            32.4741671759       64.2533807380       25.9485150654  MEMB      99              0.0000000000
     13182       105  POPC      C31            31.8233909505       63.9681831556       27.0597146148  MEMB      99              0.0000000000
     13183       105  POPC      O32            30.7043546055       63.4739112301       27.1044199300  MEMB      99              0.0000000000
     13184       105  POPC      C32            32.5753429555       64.4698620301       28.2902536437  MEMB      99              0.0000000000
     13185       105  POPC      H2X            32.9173750293       65.5021800473       28.0783162006  MEMB      99              0.0000000000
     13186       105  POPC      H2Y            33.4819214350       63.8426324553       28.4224433994  MEMB      99              0.0000000000
     13187       105  POPC      C23            32.7325406508       60.4779424217       28.9258826386  MEMB      99              0.0000000000
     13188       105  POPC      H3R            32.9933295225       61.5590823754       28.8480073772  MEMB      99              0.0000000000
     13189       105  POPC      H3S            33.6835658457       59.9051610406       28.8249501177  MEMB      99              0.0000000000
     13190       105  POPC      C24            32.1119701179       60.2057321833       30.3046892122  MEMB      99              0.0000000000
     13191       105  POPC      H4R            31.0230350466       60.4294371082       30.2780115025  MEMB      99              0.0000000000
     13192       105  POPC      H4S            32.5732170705       60.8967639906       31.0475438362  MEMB      99              0.0000000000
     13193       105  POPC      C25            32.3438159909       58.7661691202       30.7872487988  MEMB      99              0.0000000000
     13194       105  POPC      H5R            33.4357242511       58.6209587211       30.9424131320  MEMB      99              0.0000000000
     13195       105  POPC      H5S            32.0182923729       58.0448968570       30.0059392813  MEMB      99              0.0000000000
     13196       105  POPC      C26            31.6175821331       58.4475516702       32.1009946239  MEMB      99              0.0000000000
     13197       105  POPC      H6R            30.5193138791       58.4927182977       31.9288978091  MEMB      99              0.0000000000
     13198       105  POPC      H6S            31.8718395992       59.2263106020       32.8548207056  MEMB      99              0.0000000000
     13199       105  POPC      C27            32.0096648831       57.0738775126       32.6693815900  MEMB      99              0.0000000000
     13200       105  POPC      H7R            33.1086188537       57.0779687520       32.8524112472  MEMB      99              0.0000000000
     13201       105  POPC      H7S            31.8023970869       56.2854410005       31.9109378700  MEMB      99              0.0000000000
     13202       105  POPC      C28            31.3021799709       56.7421519176       33.9964543613  MEMB      99              0.0000000000
     13203       105  POPC      H8R            31.4832623620       57.5808046904       34.7019106430  MEMB      99              0.0000000000
     13204       105  POPC      H8S            31.7789629663       55.8512029916       34.4581993726  MEMB      99              0.0000000000
     13205       105  POPC      C29            29.8389182580       56.4535142744       33.7781841634  MEMB      99              0.0000000000
     13206       105  POPC      H91            29.6474239947       55.5579103496       33.1704082983  MEMB      99              0.0000000000
     13207       105  POPC      C210           28.7905504153       57.1511194861       34.2483872880  MEMB      99              0.0000000000
     13208       105  POPC      H101           27.7719737857       56.8221311392       33.9845049805  MEMB      99              0.0000000000
     13209       105  POPC      C211           28.8605137839       58.3878335223       35.1065071753  MEMB      99              0.0000000000
     13210       105  POPC      H11R           28.5649656265       59.2672270952       34.4921317181  MEMB      99              0.0000000000
     13211       105  POPC      H11S           29.8860457183       58.5771405276       35.4716092904  MEMB      99              0.0000000000
     13212       105  POPC      C212           27.9452209915       58.3346894922       36.3424280649  MEMB      99              0.0000000000
     13213       105  POPC      H12R           28.2612359930       57.5494354632       37.0552098517  MEMB      99              0.0000000000
     13214       105  POPC      H12S           26.9269101973       58.0767689194       35.9953649385  MEMB      99              0.0000000000
     13215       105  POPC      C213           27.8658180931       59.6752748492       37.0821595168  MEMB      99              0.0000000000
     13216       105  POPC      H13R           28.0404329401       60.4745862805       36.3247291332  MEMB      99              0.0000000000
     13217       105  POPC      H13S           28.6866775035       59.7636496192       37.8230062316  MEMB      99              0.0000000000
     13218       105  POPC      C214           26.4755958897       59.9368081957       37.6907218690  MEMB      99              0.0000000000
     13219       105  POPC      H14R           25.7296595285       59.2982200275       37.1699214093  MEMB      99              0.0000000000
     13220       105  POPC      H14S           26.1853406251       60.9864240562       37.4512895203  MEMB      99              0.0000000000
     13221       105  POPC      C215           26.3146331407       59.7556299858       39.2137902373  MEMB      99              0.0000000000
     13222       105  POPC      H15R           25.3190157091       59.2942218554       39.3983387922  MEMB      99              0.0000000000
     13223       105  POPC      H15S           26.2789325696       60.7541276127       39.6954119076  MEMB      99              0.0000000000
     13224       105  POPC      C216           27.3834869258       58.9433813172       39.9561688601  MEMB      99              0.0000000000
     13225       105  POPC      H16R           28.3376349731       59.5146160195       39.9390765034  MEMB      99              0.0000000000
     13226       105  POPC      H16S           27.5756849096       57.9715473029       39.4541431431  MEMB      99              0.0000000000
     13227       105  POPC      C217           26.9770834533       58.7131046483       41.4179866210  MEMB      99              0.0000000000
     13228       105  POPC      H17R           26.6034773394       57.6723489458       41.5325108680  MEMB      99              0.0000000000
     13229       105  POPC      H17S           26.1276784030       59.3923026412       41.6671594628  MEMB      99              0.0000000000
     13230       105  POPC      C218           28.0938082756       58.9823968946       42.4212034180  MEMB      99              0.0000000000
     13231       105  POPC      H18R           27.7851311461       58.6708025800       43.4405189724  MEMB      99              0.0000000000
     13232       105  POPC      H18S           28.3175238353       60.0699025876       42.4573571586  MEMB      99              0.0000000000
     13233       105  POPC      H18T           29.0221717519       58.4397655361       42.1383995953  MEMB      99              0.0000000000
     13234       105  POPC      C33            31.7072825101       64.4384410035       29.5824861539  MEMB      99              0.0000000000
     13235       105  POPC      H3X            31.8957119357       63.4454145314       30.0395943566  MEMB      99              0.0000000000
     13236       105  POPC      H3Y            30.6196587745       64.4869537147       29.3589307672  MEMB      99              0.0000000000
     13237       105  POPC      C34            32.0241496386       65.6124545298       30.5353098444  MEMB      99              0.0000000000
     13238       105  POPC      H4X            31.3752618072       66.4798627468       30.2768244791  MEMB      99              0.0000000000
     13239       105  POPC      H4Y            33.0630127041       65.9380858450       30.3186762514  MEMB      99              0.0000000000
     13240       105  POPC      C35            31.9293333990       65.3350284212       32.0536976427  MEMB      99              0.0000000000
     13241       105  POPC      H5X            30.9075436371       65.5883661859       32.4134625049  MEMB      99              0.0000000000
     13242       105  POPC      H5Y            32.6374704187       66.0164676959       32.5810186852  MEMB      99              0.0000000000
     13243       105  POPC      C36            32.2328659970       63.8827517036       32.4521226837  MEMB      99              0.0000000000
     13244       105  POPC      H6X            33.1363539731       63.5248001155       31.9096155989  MEMB      99              0.0000000000
     13245       105  POPC      H6Y            31.3720499714       63.2600261249       32.1156617148  MEMB      99              0.0000000000
     13246       105  POPC      C37            32.4288727381       63.6356127816       33.9567499173  MEMB      99              0.0000000000
     13247       105  POPC      H7X            32.0854332133       64.5135257835       34.5457270970  MEMB      99              0.0000000000
     13248       105  POPC      H7Y            33.5166938791       63.4993349140       34.1438171140  MEMB      99              0.0000000000
     13249       105  POPC      C38            31.6983606964       62.3681288193       34.4197584382  MEMB      99              0.0000000000
     13250       105  POPC      H8X            31.9508132694       61.5538538890       33.7011139229  MEMB      99              0.0000000000
     13251       105  POPC      H8Y            30.6009137831       62.5356793949       34.3639231631  MEMB      99              0.0000000000
     13252       105  POPC      C39            32.0869386883       61.8759022881       35.8234348675  MEMB      99              0.0000000000
     13253       105  POPC      H9X            31.8580833021       62.6550072858       36.5835602339  MEMB      99              0.0000000000
     13254       105  POPC      H9Y            33.1788488722       61.6722977807       35.8181392658  MEMB      99              0.0000000000
     13255       105  POPC      C310           31.3766217049       60.5601585670       36.1694703303  MEMB      99              0.0000000000
     13256       105  POPC      H10X           31.6605853649       59.8222248056       35.3844096526  MEMB      99              0.0000000000
     13257       105  POPC      H10Y           30.2824774886       60.7409608056       36.0886496132  MEMB      99              0.0000000000
     13258       105  POPC      C311           31.6738261536       59.9360473217       37.5521727434  MEMB      99              0.0000000000
     13259       105  POPC      H11X           31.0178951304       59.0416229511       37.6630527286  MEMB      99              0.0000000000
     13260       105  POPC      H11Y           31.4075428035       60.6521506928       38.3590503264  MEMB      99              0.0000000000
     13261       105  POPC      C312           33.1290177908       59.4721877720       37.7184289597  MEMB      99              0.0000000000
     13262       105  POPC      H12X           33.7575583635       60.3782533930       37.8066367089  MEMB      99              0.0000000000
     13263       105  POPC      H12Y           33.4398221429       58.9609629556       36.7773812934  MEMB      99              0.0000000000
     13264       105  POPC      C313           33.4007901936       58.4819223541       38.8762435870  MEMB      99              0.0000000000
     13265       105  POPC      H13X           34.4874973152       58.2317235327       38.8536991858  MEMB      99              0.0000000000
     13266       105  POPC      H13Y           32.8421816887       57.5421534313       38.6699487127  MEMB      99              0.0000000000
     13267       105  POPC      C314           33.0603340435       58.9359391839       40.3125393354  MEMB      99              0.0000000000
     13268       105  POPC      H14X           31.9626060792       59.0615950899       40.4078500878  MEMB      99              0.0000000000
     13269       105  POPC      H14Y           33.5437354098       59.9118608165       40.5213922293  MEMB      99              0.0000000000
     13270       105  POPC      C315           33.5661720209       57.9229205956       41.3619386892  MEMB      99              0.0000000000
     13271       105  POPC      H15X           34.6445941507       57.7530296287       41.1455110819  MEMB      99              0.0000000000
     13272       105  POPC      H15Y           33.0182844075       56.9659525243       41.2232367391  MEMB      99              0.0000000000
     13273       105  POPC      C316           33.4592473366       58.2950919855       42.8419069709  MEMB      99              0.0000000000
     13274       105  POPC      H16X           32.4610248910       58.0429658987       43.2520716446  MEMB      99              0.0000000000
     13275       105  POPC      H16Y           33.6770801633       59.3708912362       42.9986681598  MEMB      99              0.0000000000
     13276       105  POPC      H16Z           34.1709245241       57.7082966827       43.4413363529  MEMB      99              0.0000000000
     13277       106  POPC      N              20.9786888901        3.7860049891       23.9838476982  MEMB      100             0.0000000000
     13278       106  POPC      C12            19.9159598281        4.7762192039       24.4297537395  MEMB      100             0.0000000000
     13279       106  POPC      H12A           19.3864727345        4.3899108806       25.2866117048  MEMB      100             0.0000000000
     13280       106  POPC      H12B           19.1883524386        4.8763552850       23.6273602813  MEMB      100             0.0000000000
     13281       106  POPC      C13            21.4412809503        4.1384087970       22.6063139025  MEMB      100             0.0000000000
     13282       106  POPC      H13A           22.3976641806        3.6878215805       22.3666685428  MEMB      100             0.0000000000
     13283       106  POPC      H13B           20.7385076320        3.8203704604       21.8517257171  MEMB      100             0.0000000000
     13284       106  POPC      H13C           21.5719802267        5.2195629941       22.5503491432  MEMB      100             0.0000000000
     13285       106  POPC      C14            22.1866359947        3.7995103277       24.8820787953  MEMB      100             0.0000000000
     13286       106  POPC      H14A           22.5647544199        4.8145720003       24.9241461625  MEMB      100             0.0000000000
     13287       106  POPC      H14B           21.9587483974        3.4553388837       25.8837193758  MEMB      100             0.0000000000
     13288       106  POPC      H14C           22.9690494182        3.1480267418       24.4985285016  MEMB      100             0.0000000000
     13289       106  POPC      C15            20.4700461339        2.4091322564       23.9331460659  MEMB      100             0.0000000000
     13290       106  POPC      H15A           21.1662653600        1.7515479358       23.3917189534  MEMB      100             0.0000000000
     13291       106  POPC      H15B           19.5329825705        2.2622404102       23.4215778184  MEMB      100             0.0000000000
     13292       106  POPC      H15C           20.4084492309        1.9257728523       24.9085682777  MEMB      100             0.0000000000
     13293       106  POPC      C11            20.3764406790        6.2132050915       24.7607015005  MEMB      100             0.0000000000
     13294       106  POPC      H11A           21.0393271836        6.2183532183       25.6497690879  MEMB      100             0.0000000000
     13295       106  POPC      H11B           19.4680655606        6.7972626436       25.0460626318  MEMB      100             0.0000000000
     13296       106  POPC      P              20.5816381652        8.0650174701       22.8798236031  MEMB      100             0.0000000000
     13297       106  POPC      O13            19.0941671946        8.0191060766       22.8690398494  MEMB      100             0.0000000000
     13298       106  POPC      O14            21.2382347978        8.0416177581       21.5527046417  MEMB      100             0.0000000000
     13299       106  POPC      O12            21.0798295072        6.7780720314       23.6595060599  MEMB      100             0.0000000000
     13300       106  POPC      O11            21.1765869593        9.2381626568       23.7715351005  MEMB      100             0.0000000000
     13301       106  POPC      C1             20.7023898599        9.5275802083       25.0779943918  MEMB      100             0.0000000000
     13302       106  POPC      HA             19.8590241667        8.8643110122       25.3734479368  MEMB      100             0.0000000000
     13303       106  POPC      HB             20.3011611394       10.5662594430       25.0782220042  MEMB      100             0.0000000000
     13304       106  POPC      C2             21.7727606553        9.4398272290       26.2254290606  MEMB      100             0.0000000000
     13305       106  POPC      HS             22.4819444446       10.2869570488       26.0948771147  MEMB      100             0.0000000000
     13306       106  POPC      O21            22.5187382711        8.1952143038       26.2079160134  MEMB      100             0.0000000000
     13307       106  POPC      C21            23.2796597043        7.8725706824       27.2641604666  MEMB      100             0.0000000000
     13308       106  POPC      O22            23.4980495564        8.5620423409       28.2408143623  MEMB      100             0.0000000000
     13309       106  POPC      C22            23.7405433735        6.4210280994       27.1361902911  MEMB      100             0.0000000000
     13310       106  POPC      H2R            24.8303632177        6.3966668890       26.9632985602  MEMB      100             0.0000000000
     13311       106  POPC      H2S            23.2537581145        5.9535302273       26.2625943376  MEMB      100             0.0000000000
     13312       106  POPC      C3             20.9467100571        9.6378721668       27.5286483970  MEMB      100             0.0000000000
     13313       106  POPC      HX             20.3220681990       10.5479386635       27.3633651660  MEMB      100             0.0000000000
     13314       106  POPC      HY             21.6022703418        9.8528972190       28.3988671230  MEMB      100             0.0000000000
     13315       106  POPC      O31            20.0782805159        8.4974466179       27.7378305151  MEMB      100             0.0000000000
     13316       106  POPC      C31            19.3579059725        8.6243532734       28.8458869911  MEMB      100             0.0000000000
     13317       106  POPC      O32            19.4746174339        9.5318668520       29.6504567987  MEMB      100             0.0000000000
     13318       106  POPC      C32            18.3282981119        7.4935374423       28.9357978058  MEMB      100             0.0000000000
     13319       106  POPC      H2X            18.6982432677        6.6461937710       28.3218327688  MEMB      100             0.0000000000
     13320       106  POPC      H2Y            17.3755504052        7.8614762009       28.4989683707  MEMB      100             0.0000000000
     13321       106  POPC      C23            23.3936172234        5.6670192247       28.4382412779  MEMB      100             0.0000000000
     13322       106  POPC      H3R            23.8715683826        6.1505892174       29.3212295195  MEMB      100             0.0000000000
     13323       106  POPC      H3S            23.7907876938        4.6293378590       28.3723111463  MEMB      100             0.0000000000
     13324       106  POPC      C24            21.8748725474        5.6566390154       28.6205979886  MEMB      100             0.0000000000
     13325       106  POPC      H4R            21.4271929869        5.6196581595       27.6014740367  MEMB      100             0.0000000000
     13326       106  POPC      H4S            21.5312655370        6.6104357068       29.0782400290  MEMB      100             0.0000000000
     13327       106  POPC      C25            21.3197947937        4.4552237098       29.3792573856  MEMB      100             0.0000000000
     13328       106  POPC      H5R            21.9533721865        3.5525275630       29.2443079314  MEMB      100             0.0000000000
     13329       106  POPC      H5S            20.3385755710        4.2470321657       28.8847451456  MEMB      100             0.0000000000
     13330       106  POPC      C26            20.9912738389        4.7241716530       30.8540357066  MEMB      100             0.0000000000
     13331       106  POPC      H6R            20.2767171358        3.9422477588       31.1926216345  MEMB      100             0.0000000000
     13332       106  POPC      H6S            20.4813887271        5.6998725677       30.9290359427  MEMB      100             0.0000000000
     13333       106  POPC      C27            22.1656610323        4.7175358546       31.8372232174  MEMB      100             0.0000000000
     13334       106  POPC      H7R            22.9748602382        5.3967580100       31.4948413027  MEMB      100             0.0000000000
     13335       106  POPC      H7S            22.5539639961        3.6774690226       31.8339937057  MEMB      100             0.0000000000
     13336       106  POPC      C28            21.7465345005        5.0568476958       33.2901167164  MEMB      100             0.0000000000
     13337       106  POPC      H8R            22.5442508085        4.6743021705       33.9601759342  MEMB      100             0.0000000000
     13338       106  POPC      H8S            20.8473192491        4.4402239863       33.5189717821  MEMB      100             0.0000000000
     13339       106  POPC      C29            21.4236297709        6.5084924483       33.5838718227  MEMB      100             0.0000000000
     13340       106  POPC      H91            20.6636171945        6.9418808106       32.9138382972  MEMB      100             0.0000000000
     13341       106  POPC      C210           22.0035733990        7.3283835312       34.4899941914  MEMB      100             0.0000000000
     13342       106  POPC      H101           21.6395548071        8.3664911139       34.5603996756  MEMB      100             0.0000000000
     13343       106  POPC      C211           23.1350428148        6.9875024924       35.4297936464  MEMB      100             0.0000000000
     13344       106  POPC      H11R           23.9953073453        7.5773094030       35.0824679914  MEMB      100             0.0000000000
     13345       106  POPC      H11S           23.4581809183        5.9322910405       35.2856548535  MEMB      100             0.0000000000
     13346       106  POPC      C212           23.0625669310        7.1591194743       36.9742766926  MEMB      100             0.0000000000
     13347       106  POPC      H12R           24.1036691840        6.9923348266       37.3417444113  MEMB      100             0.0000000000
     13348       106  POPC      H12S           22.4489231208        6.3355923609       37.3811199057  MEMB      100             0.0000000000
     13349       106  POPC      C213           22.5723309182        8.4762332950       37.6176270905  MEMB      100             0.0000000000
     13350       106  POPC      H13R           21.4903956825        8.6111133387       37.4197166989  MEMB      100             0.0000000000
     13351       106  POPC      H13S           23.0910590813        9.3592173097       37.2017574876  MEMB      100             0.0000000000
     13352       106  POPC      C214           22.8452966363        8.4339600343       39.1389887404  MEMB      100             0.0000000000
     13353       106  POPC      H14R           23.8785515631        8.0392493847       39.2818176797  MEMB      100             0.0000000000
     13354       106  POPC      H14S           22.1393258027        7.7215545976       39.6143398818  MEMB      100             0.0000000000
     13355       106  POPC      C215           22.7638076931        9.7591305293       39.9147966464  MEMB      100             0.0000000000
     13356       106  POPC      H15R           23.4005236491       10.5368815005       39.4429831977  MEMB      100             0.0000000000
     13357       106  POPC      H15S           23.1716261746        9.5669749114       40.9358353868  MEMB      100             0.0000000000
     13358       106  POPC      C216           21.3393830433       10.2935564770       40.0834310398  MEMB      100             0.0000000000
     13359       106  POPC      H16R           20.6516567720        9.4506734307       40.3227735983  MEMB      100             0.0000000000
     13360       106  POPC      H16S           21.0181625791       10.7379973913       39.1168789358  MEMB      100             0.0000000000
     13361       106  POPC      C217           21.2384009767       11.3299421718       41.2119711830  MEMB      100             0.0000000000
     13362       106  POPC      H17R           22.0117560037       12.1157390565       41.0549859558  MEMB      100             0.0000000000
     13363       106  POPC      H17S           21.4769937529       10.8194237628       42.1737185039  MEMB      100             0.0000000000
     13364       106  POPC      C218           19.8684395361       12.0031195193       41.3343703420  MEMB      100             0.0000000000
     13365       106  POPC      H18R           19.0544577846       11.2475181906       41.3203072789  MEMB      100             0.0000000000
     13366       106  POPC      H18S           19.6909741887       12.7067729898       40.4992522421  MEMB      100             0.0000000000
     13367       106  POPC      H18T           19.8083302194       12.5812607022       42.2826634767  MEMB      100             0.0000000000
     13368       106  POPC      C33            18.0935446905        7.0221751213       30.3971908241  MEMB      100             0.0000000000
     13369       106  POPC      H3X            17.4161711390        7.7334432687       30.9130101014  MEMB      100             0.0000000000
     13370       106  POPC      H3Y            19.0504784106        7.0637052746       30.9577888588  MEMB      100             0.0000000000
     13371       106  POPC      C34            17.5473487986        5.5796156218       30.4601970131  MEMB      100             0.0000000000
     13372       106  POPC      H4X            18.1935267574        4.9643852779       29.7920684533  MEMB      100             0.0000000000
     13373       106  POPC      H4Y            16.5153003838        5.5599648358       30.0497040577  MEMB      100             0.0000000000
     13374       106  POPC      C35            17.5881669775        4.9023837865       31.8500747113  MEMB      100             0.0000000000
     13375       106  POPC      H5X            18.5818128080        5.0862795722       32.3059676750  MEMB      100             0.0000000000
     13376       106  POPC      H5Y            17.4964260768        3.8033343058       31.7059880579  MEMB      100             0.0000000000
     13377       106  POPC      C36            16.4504828769        5.2880730416       32.8111916787  MEMB      100             0.0000000000
     13378       106  POPC      H6X            15.6160828411        4.5612385513       32.6812796798  MEMB      100             0.0000000000
     13379       106  POPC      H6Y            16.0595606358        6.2693040172       32.4981364256  MEMB      100             0.0000000000
     13380       106  POPC      C37            16.8294009511        5.3480456139       34.3090855604  MEMB      100             0.0000000000
     13381       106  POPC      H7X            17.1563479085        4.3389817470       34.6435011929  MEMB      100             0.0000000000
     13382       106  POPC      H7Y            15.9204580969        5.6212700145       34.8935430238  MEMB      100             0.0000000000
     13383       106  POPC      C38            17.9259724631        6.3741043512       34.6435743203  MEMB      100             0.0000000000
     13384       106  POPC      H8X            17.5927533477        7.3847718472       34.3190875769  MEMB      100             0.0000000000
     13385       106  POPC      H8Y            18.8403722083        6.1317673914       34.0679409597  MEMB      100             0.0000000000
     13386       106  POPC      C39            18.3237809062        6.4310662553       36.1299530771  MEMB      100             0.0000000000
     13387       106  POPC      H9X            17.4219614956        6.5637476240       36.7633942642  MEMB      100             0.0000000000
     13388       106  POPC      H9Y            18.9690253778        7.3302670820       36.2679524977  MEMB      100             0.0000000000
     13389       106  POPC      C310           19.1304780649        5.2107844089       36.6030956817  MEMB      100             0.0000000000
     13390       106  POPC      H10X           19.9203876754        5.0057801564       35.8447021293  MEMB      100             0.0000000000
     13391       106  POPC      H10Y           18.4761653352        4.3141115610       36.6576157652  MEMB      100             0.0000000000
     13392       106  POPC      C311           19.8214341218        5.4344885477       37.9605265266  MEMB      100             0.0000000000
     13393       106  POPC      H11X           19.0634270467        5.4257273268       38.7723647503  MEMB      100             0.0000000000
     13394       106  POPC      H11Y           20.2925345490        6.4424575168       37.9577635685  MEMB      100             0.0000000000
     13395       106  POPC      C312           20.9069436779        4.3817247686       38.2382949114  MEMB      100             0.0000000000
     13396       106  POPC      H12X           21.5951276243        4.3543444942       37.3620532766  MEMB      100             0.0000000000
     13397       106  POPC      H12Y           20.4192333177        3.3864671306       38.3041388242  MEMB      100             0.0000000000
     13398       106  POPC      C313           21.7559655188        4.6394052571       39.5016046506  MEMB      100             0.0000000000
     13399       106  POPC      H13X           22.0590367833        5.7024643763       39.5357024456  MEMB      100             0.0000000000
     13400       106  POPC      H13Y           22.6943377048        4.0438500753       39.4410824961  MEMB      100             0.0000000000
     13401       106  POPC      C314           21.0339350614        4.2743587725       40.8055412771  MEMB      100             0.0000000000
     13402       106  POPC      H14X           20.6962477459        3.2172629512       40.7579635465  MEMB      100             0.0000000000
     13403       106  POPC      H14Y           20.1265693216        4.9022433403       40.8637837823  MEMB      100             0.0000000000
     13404       106  POPC      C315           21.8842062048        4.4830194749       42.0701408767  MEMB      100             0.0000000000
     13405       106  POPC      H15X           22.1942984234        5.5518859779       42.1222720397  MEMB      100             0.0000000000
     13406       106  POPC      H15Y           22.8097923447        3.8681280826       41.9826397694  MEMB      100             0.0000000000
     13407       106  POPC      C316           21.1708600031        4.1085494333       43.3764939816  MEMB      100             0.0000000000
     13408       106  POPC      H16X           21.8217681541        4.3164072135       44.2527086730  MEMB      100             0.0000000000
     13409       106  POPC      H16Y           20.9086037812        3.0291957641       43.3809316671  MEMB      100             0.0000000000
     13410       106  POPC      H16Z           20.2334145767        4.6849525594       43.5051183242  MEMB      100             0.0000000000
     13411       107  POPC      N              13.1786102790        9.7895184986       23.8904861594  MEMB      101             0.0000000000
     13412       107  POPC      C12            14.7036805775        9.8560409633       23.8721551274  MEMB      101             0.0000000000
     13413       107  POPC      H12A           15.0924256551        8.8843288547       23.6126867413  MEMB      101             0.0000000000
     13414       107  POPC      H12B           15.0439100784       10.0293731637       24.8872522891  MEMB      101             0.0000000000
     13415       107  POPC      C13            12.5793995135       11.1145129808       24.3107501947  MEMB      101             0.0000000000
     13416       107  POPC      H13A           13.0727957042       11.5332741716       25.1798881360  MEMB      101             0.0000000000
     13417       107  POPC      H13B           12.7616119890       11.8669071058       23.5363197128  MEMB      101             0.0000000000
     13418       107  POPC      H13C           11.5106891280       11.0897956977       24.4581430050  MEMB      101             0.0000000000
     13419       107  POPC      C14            12.6945362771        9.4809199647       22.5130464261  MEMB      101             0.0000000000
     13420       107  POPC      H14A           13.2132226706       10.1644576878       21.8275362003  MEMB      101             0.0000000000
     13421       107  POPC      H14B           12.9497764944        8.4767451818       22.1855644664  MEMB      101             0.0000000000
     13422       107  POPC      H14C           11.6356691897        9.6581690638       22.3854256419  MEMB      101             0.0000000000
     13423       107  POPC      C15            12.7501946472        8.7284764728       24.8404801695  MEMB      101             0.0000000000
     13424       107  POPC      H15A           12.9635773107        7.7459659658       24.4405365447  MEMB      101             0.0000000000
     13425       107  POPC      H15B           11.6983414110        8.8457458383       25.0447451466  MEMB      101             0.0000000000
     13426       107  POPC      H15C           13.2625108552        8.8159247817       25.7989542918  MEMB      101             0.0000000000
     13427       107  POPC      C11            15.4208488417       10.8872794470       22.9545037637  MEMB      101             0.0000000000
     13428       107  POPC      H11A           15.4996805330       10.4463981784       21.9368268863  MEMB      101             0.0000000000
     13429       107  POPC      H11B           16.4631837627       11.0420033994       23.3206151562  MEMB      101             0.0000000000
     13430       107  POPC      P              15.2035653932       13.5596283543       23.1125563136  MEMB      101             0.0000000000
     13431       107  POPC      O13            13.9889691584       14.3834652686       23.2649202176  MEMB      101             0.0000000000
     13432       107  POPC      O14            16.0726799633       13.8847888974       21.9569867380  MEMB      101             0.0000000000
     13433       107  POPC      O12            14.6998034335       12.0971721120       22.8710077187  MEMB      101             0.0000000000
     13434       107  POPC      O11            16.0003869010       13.4800635216       24.4869319556  MEMB      101             0.0000000000
     13435       107  POPC      C1             15.3317641559       13.5422465484       25.7585728571  MEMB      101             0.0000000000
     13436       107  POPC      HA             14.2643929604       13.8622049155       25.6717096576  MEMB      101             0.0000000000
     13437       107  POPC      HB             15.8342711103       14.2879012523       26.4109061364  MEMB      101             0.0000000000
     13438       107  POPC      C2             15.3748086540       12.1439085973       26.4222806049  MEMB      101             0.0000000000
     13439       107  POPC      HS             15.4297331241       11.4347473515       25.5800641302  MEMB      101             0.0000000000
     13440       107  POPC      O21            14.1946123940       11.9273724173       27.2280356956  MEMB      101             0.0000000000
     13441       107  POPC      C21            13.9075268933       10.6517654293       27.4420479202  MEMB      101             0.0000000000
     13442       107  POPC      O22            14.4901488491        9.7082877868       26.9305716231  MEMB      101             0.0000000000
     13443       107  POPC      C22            12.6205690213       10.5886869625       28.2586357789  MEMB      101             0.0000000000
     13444       107  POPC      H2R            11.8719929195       11.1218844123       27.6374769459  MEMB      101             0.0000000000
     13445       107  POPC      H2S            12.7640807168       11.1663295062       29.1931689293  MEMB      101             0.0000000000
     13446       107  POPC      C3             16.6534534481       11.9289146904       27.2774517425  MEMB      101             0.0000000000
     13447       107  POPC      HX             17.5040131049       12.3557457948       26.6989255928  MEMB      101             0.0000000000
     13448       107  POPC      HY             16.8455492278       10.8335009353       27.3644748387  MEMB      101             0.0000000000
     13449       107  POPC      O31            16.5641871073       12.6063006728       28.5426178917  MEMB      101             0.0000000000
     13450       107  POPC      C31            16.4202773886       11.8341483616       29.6275281391  MEMB      101             0.0000000000
     13451       107  POPC      O32            16.3802263514       10.6179543482       29.6228960127  MEMB      101             0.0000000000
     13452       107  POPC      C32            16.1952649468       12.7398658350       30.8494391596  MEMB      101             0.0000000000
     13453       107  POPC      H2X            15.1048210954       12.9439976727       30.8962466433  MEMB      101             0.0000000000
     13454       107  POPC      H2Y            16.7277782180       13.6938848790       30.6610217293  MEMB      101             0.0000000000
     13455       107  POPC      C23            12.0918020252        9.1650847884       28.5532926959  MEMB      101             0.0000000000
     13456       107  POPC      H3R            11.9015495937        8.6119333020       27.6095861207  MEMB      101             0.0000000000
     13457       107  POPC      H3S            11.1122239167        9.2653560977       29.0736603739  MEMB      101             0.0000000000
     13458       107  POPC      C24            13.0039482992        8.3180250779       29.4497255813  MEMB      101             0.0000000000
     13459       107  POPC      H4R            13.9103411209        8.0253808186       28.8684584506  MEMB      101             0.0000000000
     13460       107  POPC      H4S            12.4747845519        7.3786113351       29.7316531425  MEMB      101             0.0000000000
     13461       107  POPC      C25            13.4859218126        9.0112381675       30.7313346614  MEMB      101             0.0000000000
     13462       107  POPC      H5R            12.6326766972        9.2286129777       31.4089793786  MEMB      101             0.0000000000
     13463       107  POPC      H5S            13.9784306924        9.9759582556       30.4817798384  MEMB      101             0.0000000000
     13464       107  POPC      C26            14.5350778017        8.1408600262       31.4296024074  MEMB      101             0.0000000000
     13465       107  POPC      H6R            15.2431658090        7.7858868387       30.6435697476  MEMB      101             0.0000000000
     13466       107  POPC      H6S            14.0456902798        7.2455226489       31.8676470558  MEMB      101             0.0000000000
     13467       107  POPC      C27            15.3775756274        8.8833343145       32.4774240136  MEMB      101             0.0000000000
     13468       107  POPC      H7R            15.9739721878        9.6419679601       31.9292389480  MEMB      101             0.0000000000
     13469       107  POPC      H7S            16.1136869703        8.1993602970       32.9419190492  MEMB      101             0.0000000000
     13470       107  POPC      C28            14.5963250391        9.5772393668       33.5989132602  MEMB      101             0.0000000000
     13471       107  POPC      H8R            14.1614795749       10.5058521084       33.1672925435  MEMB      101             0.0000000000
     13472       107  POPC      H8S            15.3204200676        9.8901891187       34.3818155312  MEMB      101             0.0000000000
     13473       107  POPC      C29            13.5311018660        8.7318023920       34.2361293854  MEMB      101             0.0000000000
     13474       107  POPC      H91            13.7275521119        7.6497492136       34.2730908690  MEMB      101             0.0000000000
     13475       107  POPC      C210           12.3912906309        9.2392617791       34.7278557945  MEMB      101             0.0000000000
     13476       107  POPC      H101           11.6289362714        8.5717837856       35.1560052032  MEMB      101             0.0000000000
     13477       107  POPC      C211           12.0434224385       10.7033887181       34.7057277379  MEMB      101             0.0000000000
     13478       107  POPC      H11R           10.9796854542       10.8163124581       35.0066857711  MEMB      101             0.0000000000
     13479       107  POPC      H11S           12.1147546406       11.1035749749       33.6703034222  MEMB      101             0.0000000000
     13480       107  POPC      C212           12.9400077702       11.5753182958       35.6160415600  MEMB      101             0.0000000000
     13481       107  POPC      H12R           12.7368345167       12.6479922093       35.4103145518  MEMB      101             0.0000000000
     13482       107  POPC      H12S           14.0163915779       11.4232211760       35.3956906850  MEMB      101             0.0000000000
     13483       107  POPC      C213           12.7010595198       11.2956136563       37.0979223584  MEMB      101             0.0000000000
     13484       107  POPC      H13R           13.0866622323       10.2786720168       37.3292711706  MEMB      101             0.0000000000
     13485       107  POPC      H13S           11.6164030645       11.2943844588       37.2825207212  MEMB      101             0.0000000000
     13486       107  POPC      C214           13.2861984014       12.3280563257       38.0648182960  MEMB      101             0.0000000000
     13487       107  POPC      H14R           13.1911335538       11.9189688350       39.0855511926  MEMB      101             0.0000000000
     13488       107  POPC      H14S           12.6829953509       13.2594296243       38.0266153340  MEMB      101             0.0000000000
     13489       107  POPC      C215           14.7709474780       12.5988400940       37.8511657368  MEMB      101             0.0000000000
     13490       107  POPC      H15R           14.9080321734       13.2171579086       36.9390428819  MEMB      101             0.0000000000
     13491       107  POPC      H15S           15.2446692115       11.6160314283       37.6703548853  MEMB      101             0.0000000000
     13492       107  POPC      C216           15.4436922834       13.2544542316       39.0632891774  MEMB      101             0.0000000000
     13493       107  POPC      H16R           15.3987469943       12.5822042154       39.9454304455  MEMB      101             0.0000000000
     13494       107  POPC      H16S           14.8958460960       14.1752097481       39.3500954483  MEMB      101             0.0000000000
     13495       107  POPC      C217           16.9036299077       13.6226201721       38.8008253095  MEMB      101             0.0000000000
     13496       107  POPC      H17R           16.9646728857       14.1796434726       37.8372102575  MEMB      101             0.0000000000
     13497       107  POPC      H17S           17.5031038665       12.6905934700       38.6875520994  MEMB      101             0.0000000000
     13498       107  POPC      C218           17.4713998748       14.4860869982       39.9252614489  MEMB      101             0.0000000000
     13499       107  POPC      H18R           17.4538430321       13.9281094862       40.8868448716  MEMB      101             0.0000000000
     13500       107  POPC      H18S           16.8602634362       15.4068631136       40.0416980501  MEMB      101             0.0000000000
     13501       107  POPC      H18T           18.5185236300       14.7824747187       39.7088637155  MEMB      101             0.0000000000
     13502       107  POPC      C33            16.6688340155       12.1464421532       32.2026308639  MEMB      101             0.0000000000
     13503       107  POPC      H3X            17.3512204894       11.2852011444       32.0194289555  MEMB      101             0.0000000000
     13504       107  POPC      H3Y            15.7893159754       11.7697984217       32.7628232255  MEMB      101             0.0000000000
     13505       107  POPC      C34            17.4130070272       13.1319377368       33.1192033896  MEMB      101             0.0000000000
     13506       107  POPC      H4X            16.6783751882       13.7237419888       33.7029836988  MEMB      101             0.0000000000
     13507       107  POPC      H4Y            17.9982823706       13.8414708026       32.4979610357  MEMB      101             0.0000000000
     13508       107  POPC      C35            18.3706728936       12.4335021505       34.0962770444  MEMB      101             0.0000000000
     13509       107  POPC      H5X            18.8701445825       13.2042545273       34.7274937456  MEMB      101             0.0000000000
     13510       107  POPC      H5Y            19.1621460590       11.9012365316       33.5221094492  MEMB      101             0.0000000000
     13511       107  POPC      C36            17.6491284870       11.4253766621       34.9931765412  MEMB      101             0.0000000000
     13512       107  POPC      H6X            17.3103737258       10.5587073596       34.3847701218  MEMB      101             0.0000000000
     13513       107  POPC      H6Y            16.7474666451       11.9124197512       35.4318387740  MEMB      101             0.0000000000
     13514       107  POPC      C37            18.5277178266       10.9068290806       36.1289431666  MEMB      101             0.0000000000
     13515       107  POPC      H7X            18.9266033560       11.7785790003       36.6887089275  MEMB      101             0.0000000000
     13516       107  POPC      H7Y            19.3936605708       10.3396732458       35.7216696302  MEMB      101             0.0000000000
     13517       107  POPC      C38            17.7356481882       10.0182129867       37.0922366809  MEMB      101             0.0000000000
     13518       107  POPC      H8X            17.3033513665        9.1526115701       36.5460901011  MEMB      101             0.0000000000
     13519       107  POPC      H8Y            16.8970778846       10.6087529974       37.5037639866  MEMB      101             0.0000000000
     13520       107  POPC      C39            18.5857805921        9.5520042294       38.2687624870  MEMB      101             0.0000000000
     13521       107  POPC      H9X            18.9249083813       10.4500129112       38.8315973054  MEMB      101             0.0000000000
     13522       107  POPC      H9Y            19.4844174333        9.0362709389       37.8680126613  MEMB      101             0.0000000000
     13523       107  POPC      C310           17.8790694704        8.6040616212       39.2424569464  MEMB      101             0.0000000000
     13524       107  POPC      H10X           18.6807136977        8.2185217772       39.9133400862  MEMB      101             0.0000000000
     13525       107  POPC      H10Y           17.4528444899        7.7287984695       38.7112290773  MEMB      101             0.0000000000
     13526       107  POPC      C311           16.8106591213        9.2822614684       40.1099615252  MEMB      101             0.0000000000
     13527       107  POPC      H11X           17.0082118320       10.3748056604       40.1793677462  MEMB      101             0.0000000000
     13528       107  POPC      H11Y           16.8772284456        8.8803036069       41.1465989084  MEMB      101             0.0000000000
     13529       107  POPC      C312           15.3726478640        9.0389910479       39.6355785472  MEMB      101             0.0000000000
     13530       107  POPC      H12X           15.1755320077        7.9448489314       39.5951555519  MEMB      101             0.0000000000
     13531       107  POPC      H12Y           15.2290507731        9.4484592309       38.6127991810  MEMB      101             0.0000000000
     13532       107  POPC      C313           14.3823713175        9.6968265661       40.6006690154  MEMB      101             0.0000000000
     13533       107  POPC      H13X           14.5649859410       10.7909056073       40.5967737126  MEMB      101             0.0000000000
     13534       107  POPC      H13Y           14.5955619058        9.3416404479       41.6338756644  MEMB      101             0.0000000000
     13535       107  POPC      C314           12.9153634632        9.4151995432       40.2749169715  MEMB      101             0.0000000000
     13536       107  POPC      H14X           12.7461690817        8.3287080174       40.1388499597  MEMB      101             0.0000000000
     13537       107  POPC      H14Y           12.6445727206        9.8826624065       39.3107750354  MEMB      101             0.0000000000
     13538       107  POPC      C315           11.9765990137        9.9567222498       41.3535165115  MEMB      101             0.0000000000
     13539       107  POPC      H15X           12.1603470646        9.4368509538       42.3159896018  MEMB      101             0.0000000000
     13540       107  POPC      H15Y           10.9421202054        9.6940138874       41.0560661926  MEMB      101             0.0000000000
     13541       107  POPC      C316           12.1061975907       11.4606494148       41.5943949376  MEMB      101             0.0000000000
     13542       107  POPC      H16X           13.0534921710       11.7038914555       42.1190395298  MEMB      101             0.0000000000
     13543       107  POPC      H16Y           11.2721994430       11.8236836313       42.2153219336  MEMB      101             0.0000000000
     13544       107  POPC      H16Z           12.0616883606       12.0338080555       40.6511115715  MEMB      101             0.0000000000
     13545       108  POPS      N              50.4348655849        9.1419335692       21.5034888447  MEMB      102             0.0000000000
     13546       108  POPS      HN1            49.7393348575        9.5620494456       20.8561226288  MEMB      102             0.0000000000
     13547       108  POPS      HN2            50.7168652398        9.8520493238       22.2357558018  MEMB      102             0.0000000000
     13548       108  POPS      HN3            51.2929173674        8.7879111681       21.0362029190  MEMB      102             0.0000000000
     13549       108  POPS      C12            49.7485506881        8.0214428427       22.2184877832  MEMB      102             0.0000000000
     13550       108  POPS      H12A           50.0846089012        7.0984586058       21.7693137527  MEMB      102             0.0000000000
     13551       108  POPS      C13            48.1960244764        8.0866965907       22.1345636425  MEMB      102             0.0000000000
     13552       108  POPS      O13A           47.6921936462        9.1235506165       21.6110318725  MEMB      102             0.0000000000
     13553       108  POPS      O13B           47.5150745985        7.1258835894       22.5928652703  MEMB      102             0.0000000000
     13554       108  POPS      C11            50.1859972123        8.0934116978       23.7057449590  MEMB      102             0.0000000000
     13555       108  POPS      H11A           49.9377373859        7.1154632890       24.1839525424  MEMB      102             0.0000000000
     13556       108  POPS      H11B           49.5512867795        8.8624981320       24.2222654320  MEMB      102             0.0000000000
     13557       108  POPS      P              52.1074046178        9.7501880820       24.3989984136  MEMB      102             0.0000000000
     13558       108  POPS      O13            51.5191226037       10.7754124740       23.5006244763  MEMB      102             0.0000000000
     13559       108  POPS      O14            53.5657094643        9.6863407175       24.6203414532  MEMB      102             0.0000000000
     13560       108  POPS      O12            51.6052085748        8.3527236400       23.8227664489  MEMB      102             0.0000000000
     13561       108  POPS      O11            51.3983290609        9.7311999037       25.7927082110  MEMB      102             0.0000000000
     13562       108  POPS      C1             51.4064592832        8.5271029506       26.5830285957  MEMB      102             0.0000000000
     13563       108  POPS      HA             52.2167136103        8.5858237079       27.3478417463  MEMB      102             0.0000000000
     13564       108  POPS      HB             51.5658324178        7.5892743325       26.0012883377  MEMB      102             0.0000000000
     13565       108  POPS      C2             50.0454313687        8.4310930141       27.2774804064  MEMB      102             0.0000000000
     13566       108  POPS      HS             49.2628742826        8.6303385899       26.4984740796  MEMB      102             0.0000000000
     13567       108  POPS      O21            50.1252049803        9.4511655316       28.2823202883  MEMB      102             0.0000000000
     13568       108  POPS      C21            49.2158098898       10.3878881135       28.1468428375  MEMB      102             0.0000000000
     13569       108  POPS      O22            48.0980076199       10.2401172618       27.6945038539  MEMB      102             0.0000000000
     13570       108  POPS      C22            49.7274532877       11.6211223861       28.8608512808  MEMB      102             0.0000000000
     13571       108  POPS      H2R            49.2643548467       12.5048397018       28.3827750589  MEMB      102             0.0000000000
     13572       108  POPS      H2S            50.8296405890       11.6816494661       28.7435232674  MEMB      102             0.0000000000
     13573       108  POPS      C3             49.7116389726        7.0400592858       27.8746544123  MEMB      102             0.0000000000
     13574       108  POPS      HX             50.5405127804        6.6954120192       28.5338154057  MEMB      102             0.0000000000
     13575       108  POPS      HY             49.6413691724        6.3211135826       27.0282869007  MEMB      102             0.0000000000
     13576       108  POPS      O31            48.4246976840        7.1028269790       28.5235298798  MEMB      102             0.0000000000
     13577       108  POPS      C31            48.4561701481        7.3201928609       29.8205195114  MEMB      102             0.0000000000
     13578       108  POPS      O32            49.3890603947        7.1019912895       30.5721831350  MEMB      102             0.0000000000
     13579       108  POPS      C32            47.1328703911        7.9860523151       30.1969697687  MEMB      102             0.0000000000
     13580       108  POPS      H2X            46.3293233562        7.4867054431       29.6186281946  MEMB      102             0.0000000000
     13581       108  POPS      H2Y            47.1890608283        9.0420252739       29.8594166299  MEMB      102             0.0000000000
     13582       108  POPS      C23            49.3164328445       11.5122782764       30.3405667440  MEMB      102             0.0000000000
     13583       108  POPS      H3R            49.6352085884       10.5262815130       30.7543265226  MEMB      102             0.0000000000
     13584       108  POPS      H3S            48.2077996707       11.5564487890       30.3826016275  MEMB      102             0.0000000000
     13585       108  POPS      C24            49.9202250388       12.6214202257       31.1975831965  MEMB      102             0.0000000000
     13586       108  POPS      H4R            49.2958046616       12.8044705687       32.0990073091  MEMB      102             0.0000000000
     13587       108  POPS      H4S            49.9339808679       13.5643247171       30.6041578125  MEMB      102             0.0000000000
     13588       108  POPS      C25            51.3412724752       12.2777413039       31.6508971359  MEMB      102             0.0000000000
     13589       108  POPS      H5R            51.8106944669       13.2162001170       32.0224332020  MEMB      102             0.0000000000
     13590       108  POPS      H5S            51.9295515058       11.9032638425       30.7794402175  MEMB      102             0.0000000000
     13591       108  POPS      C26            51.4114020821       11.2229534063       32.7654008257  MEMB      102             0.0000000000
     13592       108  POPS      H6R            51.1338528208       10.2292385859       32.3463427664  MEMB      102             0.0000000000
     13593       108  POPS      H6S            50.6800900700       11.4902952939       33.5547319235  MEMB      102             0.0000000000
     13594       108  POPS      C27            52.8073154687       11.1212224473       33.3983157977  MEMB      102             0.0000000000
     13595       108  POPS      H7R            52.9199083002       11.8974735464       34.1857163919  MEMB      102             0.0000000000
     13596       108  POPS      H7S            53.5502645828       11.3308473529       32.5990579412  MEMB      102             0.0000000000
     13597       108  POPS      C28            53.1607527921        9.7322963991       33.9537940281  MEMB      102             0.0000000000
     13598       108  POPS      H8R            54.2428204452        9.7332803734       34.2169993592  MEMB      102             0.0000000000
     13599       108  POPS      H8S            53.0286139444        8.9865027677       33.1379658655  MEMB      102             0.0000000000
     13600       108  POPS      C29            52.3414666002        9.4143890510       35.1725946991  MEMB      102             0.0000000000
     13601       108  POPS      H91            52.2560494182       10.2427243366       35.8917830953  MEMB      102             0.0000000000
     13602       108  POPS      C210           51.7476184682        8.2494371091       35.4721256765  MEMB      102             0.0000000000
     13603       108  POPS      H101           51.2074316690        8.1893487508       36.4221223016  MEMB      102             0.0000000000
     13604       108  POPS      C211           51.7424408003        6.9664769011       34.6854947895  MEMB      102             0.0000000000
     13605       108  POPS      H11R           52.5815833283        6.3464859621       35.0181892907  MEMB      102             0.0000000000
     13606       108  POPS      H11S           51.8999515519        7.1432641740       33.5976949597  MEMB      102             0.0000000000
     13607       108  POPS      C212           50.5382814172        6.0274566861       34.8747602348  MEMB      102             0.0000000000
     13608       108  POPS      H12R           50.7863810238        5.0548727588       34.3863472776  MEMB      102             0.0000000000
     13609       108  POPS      H12S           49.7090902980        6.4948586394       34.3109410720  MEMB      102             0.0000000000
     13610       108  POPS      C213           50.0582905374        5.7199486031       36.3120696763  MEMB      102             0.0000000000
     13611       108  POPS      H13R           49.5301800994        4.7403462323       36.2871202042  MEMB      102             0.0000000000
     13612       108  POPS      H13S           49.3296758951        6.4984599107       36.6100744909  MEMB      102             0.0000000000
     13613       108  POPS      C214           51.0860527197        5.6697721499       37.4467780588  MEMB      102             0.0000000000
     13614       108  POPS      H14R           51.3764597817        6.7042362186       37.7301066981  MEMB      102             0.0000000000
     13615       108  POPS      H14S           51.9770311786        5.1239905039       37.0712944000  MEMB      102             0.0000000000
     13616       108  POPS      C215           50.5973584565        4.9872038218       38.7336019195  MEMB      102             0.0000000000
     13617       108  POPS      H15R           51.3101164861        5.1852058167       39.5639436657  MEMB      102             0.0000000000
     13618       108  POPS      H15S           50.6489364527        3.8981211561       38.5283020011  MEMB      102             0.0000000000
     13619       108  POPS      C216           49.1607313745        5.3461837145       39.1531575703  MEMB      102             0.0000000000
     13620       108  POPS      H16R           48.7015665307        4.4650997592       39.6411936401  MEMB      102             0.0000000000
     13621       108  POPS      H16S           48.5205621612        5.5578469066       38.2757201393  MEMB      102             0.0000000000
     13622       108  POPS      C217           49.0180725079        6.4697916056       40.1779996565  MEMB      102             0.0000000000
     13623       108  POPS      H17R           48.0586915693        6.9990679587       39.9627589155  MEMB      102             0.0000000000
     13624       108  POPS      H17S           49.8372160802        7.2132134891       40.0644010406  MEMB      102             0.0000000000
     13625       108  POPS      C218           48.9399503498        5.9178462820       41.6047235124  MEMB      102             0.0000000000
     13626       108  POPS      H18R           49.9430907778        5.6899173553       41.9945371614  MEMB      102             0.0000000000
     13627       108  POPS      H18S           48.3826491504        4.9597439717       41.6421320761  MEMB      102             0.0000000000
     13628       108  POPS      H18T           48.4322175637        6.6300418868       42.2857039469  MEMB      102             0.0000000000
     13629       108  POPS      C33            46.8216685769        7.9155584740       31.7001431468  MEMB      102             0.0000000000
     13630       108  POPS      H3X            47.7455411663        7.9901555680       32.3159561926  MEMB      102             0.0000000000
     13631       108  POPS      H3Y            46.3550191401        6.9269647067       31.8787469329  MEMB      102             0.0000000000
     13632       108  POPS      C34            45.7951549553        8.9397329134       32.1880169542  MEMB      102             0.0000000000
     13633       108  POPS      H4X            45.4591309930        8.6170984399       33.1991870007  MEMB      102             0.0000000000
     13634       108  POPS      H4Y            44.9200226163        8.8849712370       31.5169607369  MEMB      102             0.0000000000
     13635       108  POPS      C35            46.2765491519       10.3901341101       32.2741455098  MEMB      102             0.0000000000
     13636       108  POPS      H5X            45.4565614638       11.0217418795       32.6792623696  MEMB      102             0.0000000000
     13637       108  POPS      H5Y            46.4938258649       10.7662557757       31.2527487406  MEMB      102             0.0000000000
     13638       108  POPS      C36            47.4945446217       10.5861465033       33.1785921481  MEMB      102             0.0000000000
     13639       108  POPS      H6X            47.7294122982       11.6713725926       33.2453439420  MEMB      102             0.0000000000
     13640       108  POPS      H6Y            48.3762540034       10.0797650633       32.7217716419  MEMB      102             0.0000000000
     13641       108  POPS      C37            47.3262338550       10.0330829000       34.5980024334  MEMB      102             0.0000000000
     13642       108  POPS      H7X            47.2300000763        8.9249551406       34.5560370432  MEMB      102             0.0000000000
     13643       108  POPS      H7Y            46.4089433568       10.4359997262       35.0769335875  MEMB      102             0.0000000000
     13644       108  POPS      C38            48.5514971417       10.4066969449       35.4325215541  MEMB      102             0.0000000000
     13645       108  POPS      H8X            48.4326586108       11.4330243728       35.8328281533  MEMB      102             0.0000000000
     13646       108  POPS      H8Y            49.4186129687       10.4366110733       34.7383713723  MEMB      102             0.0000000000
     13647       108  POPS      C39            48.9214761158        9.3874225453       36.5152538505  MEMB      102             0.0000000000
     13648       108  POPS      H9X            49.9316567192        9.6590767816       36.8965121452  MEMB      102             0.0000000000
     13649       108  POPS      H9Y            48.9813517845        8.3981139102       36.0100929157  MEMB      102             0.0000000000
     13650       108  POPS      C310           47.9929408822        9.3057185126       37.7297461003  MEMB      102             0.0000000000
     13651       108  POPS      H10X           48.5363765824        8.8472856571       38.5854987240  MEMB      102             0.0000000000
     13652       108  POPS      H10Y           47.1560009549        8.6229981433       37.4608894994  MEMB      102             0.0000000000
     13653       108  POPS      C311           47.3956525657       10.6655842282       38.1179883439  MEMB      102             0.0000000000
     13654       108  POPS      H11X           46.6636660758       10.5707430182       38.9403193514  MEMB      102             0.0000000000
     13655       108  POPS      H11Y           46.7966325878       10.9653455063       37.2257562334  MEMB      102             0.0000000000
     13656       108  POPS      C312           48.4055834837       11.7999128336       38.4021350676  MEMB      102             0.0000000000
     13657       108  POPS      H12X           47.9691238083       12.6964849676       37.9275020690  MEMB      102             0.0000000000
     13658       108  POPS      H12Y           49.3743588455       11.6183527766       37.8902456859  MEMB      102             0.0000000000
     13659       108  POPS      C313           48.6479467332       12.2027452140       39.8658896187  MEMB      102             0.0000000000
     13660       108  POPS      H13X           47.7209891018       12.4953992909       40.3872039242  MEMB      102             0.0000000000
     13661       108  POPS      H13Y           49.3330637249       13.0830153351       39.8912973267  MEMB      102             0.0000000000
     13662       108  POPS      C314           49.1450338757       11.1007192902       40.7678868249  MEMB      102             0.0000000000
     13663       108  POPS      H14X           49.8670263377       11.5515480410       41.4825089622  MEMB      102             0.0000000000
     13664       108  POPS      H14Y           49.6277561391       10.3101675672       40.1538953791  MEMB      102             0.0000000000
     13665       108  POPS      C315           48.0174344875       10.5200375836       41.6138376681  MEMB      102             0.0000000000
     13666       108  POPS      H15X           47.2610019524       10.1661165382       40.8970692694  MEMB      102             0.0000000000
     13667       108  POPS      H15Y           47.5880674450       11.3262233628       42.2546882789  MEMB      102             0.0000000000
     13668       108  POPS      C316           48.4219579824        9.3449335945       42.4804569859  MEMB      102             0.0000000000
     13669       108  POPS      H16X           49.0050349910        8.6292208268       41.8663048693  MEMB      102             0.0000000000
     13670       108  POPS      H16Y           47.5559685229        8.8230004385       42.9321510881  MEMB      102             0.0000000000
     13671       108  POPS      H16Z           49.0727944383        9.7090427368       43.2962513217  MEMB      102             0.0000000000
     13672       109  POPC      N              29.3086186605        1.7069945388       21.3983972537  MEMB      103             0.0000000000
     13673       109  POPC      C12            28.2399554741        1.1887866099       22.3313003043  MEMB      103             0.0000000000
     13674       109  POPC      H12A           28.6929264494        0.5252889811       23.0615516646  MEMB      103             0.0000000000
     13675       109  POPC      H12B           27.5326259567        0.6191529691       21.7291778205  MEMB      103             0.0000000000
     13676       109  POPC      C13            28.6878068363        2.5356661313       20.3055094317  MEMB      103             0.0000000000
     13677       109  POPC      H13A           28.2476118769        3.4430107096       20.7114499028  MEMB      103             0.0000000000
     13678       109  POPC      H13B           29.4585319604        2.8248599531       19.5977852192  MEMB      103             0.0000000000
     13679       109  POPC      H13C           27.9208765285        2.0037090167       19.7559685069  MEMB      103             0.0000000000
     13680       109  POPC      C14            30.2982648402        2.5882949769       22.1025660178  MEMB      103             0.0000000000
     13681       109  POPC      H14A           29.7781319213        3.4520061014       22.5192440095  MEMB      103             0.0000000000
     13682       109  POPC      H14B           30.7622839825        2.0997923037       22.9455408538  MEMB      103             0.0000000000
     13683       109  POPC      H14C           31.0602655564        2.9645337464       21.4352603224  MEMB      103             0.0000000000
     13684       109  POPC      C15            30.0422535774        0.5784394255       20.7755162770  MEMB      103             0.0000000000
     13685       109  POPC      H15A           29.3611616340       -0.1322212917       20.3158400293  MEMB      103             0.0000000000
     13686       109  POPC      H15B           30.6834291703        0.0367886501       21.4644744082  MEMB      103             0.0000000000
     13687       109  POPC      H15C           30.6650884729        0.9736504989       19.9707142032  MEMB      103             0.0000000000
     13688       109  POPC      C11            27.4920724437        2.2629773325       23.1392913282  MEMB      103             0.0000000000
     13689       109  POPC      H11A           26.6069489005        1.7829293963       23.6292310929  MEMB      103             0.0000000000
     13690       109  POPC      H11B           27.1577625827        3.0650772397       22.4512013425  MEMB      103             0.0000000000
     13691       109  POPC      P              27.8521106295        3.6144259957       25.3546925642  MEMB      103             0.0000000000
     13692       109  POPC      O13            26.5630099467        4.2440397906       24.9799410996  MEMB      103             0.0000000000
     13693       109  POPC      O14            28.9296699994        4.5070421776       25.8363353968  MEMB      103             0.0000000000
     13694       109  POPC      O12            28.3801640163        2.8267803469       24.0932235114  MEMB      103             0.0000000000
     13695       109  POPC      O11            27.5648853322        2.4621155405       26.3942871651  MEMB      103             0.0000000000
     13696       109  POPC      C1             27.7643793004        1.0641689614       26.1593997417  MEMB      103             0.0000000000
     13697       109  POPC      HA             28.2773333453        0.8279050078       25.2039401544  MEMB      103             0.0000000000
     13698       109  POPC      HB             26.7699115683        0.5670646950       26.1061424267  MEMB      103             0.0000000000
     13699       109  POPC      C2             28.6081406725        0.4141969693       27.2925350149  MEMB      103             0.0000000000
     13700       109  POPC      HS             28.5396631734       -0.6934250413       27.1972477240  MEMB      103             0.0000000000
     13701       109  POPC      O21            28.1225897322        0.7988199040       28.5862702235  MEMB      103             0.0000000000
     13702       109  POPC      C21            26.8118889273        0.7185513395       28.7650320539  MEMB      103             0.0000000000
     13703       109  POPC      O22            26.0504810162       -0.0859568679       28.2549566049  MEMB      103             0.0000000000
     13704       109  POPC      C22            26.4306832871        1.7989367539       29.7880321296  MEMB      103             0.0000000000
     13705       109  POPC      H2R            26.2801113152        2.7470698980       29.2296912963  MEMB      103             0.0000000000
     13706       109  POPC      H2S            27.2781159823        1.9259083954       30.4909582972  MEMB      103             0.0000000000
     13707       109  POPC      C3             30.1296552848        0.7851170589       27.1674234410  MEMB      103             0.0000000000
     13708       109  POPC      HX             30.5055163393        0.3992219292       26.1922247647  MEMB      103             0.0000000000
     13709       109  POPC      HY             30.6477251310        0.2470311198       27.9870726948  MEMB      103             0.0000000000
     13710       109  POPC      O31            30.3923215267        2.1975955322       27.2788483018  MEMB      103             0.0000000000
     13711       109  POPC      C31            31.6580857895        2.5262275198       27.4802184757  MEMB      103             0.0000000000
     13712       109  POPC      O32            32.6178455100        1.7779754605       27.3869999382  MEMB      103             0.0000000000
     13713       109  POPC      C32            31.7649828711        3.9833229945       27.9082580222  MEMB      103             0.0000000000
     13714       109  POPC      H2X            30.7510862174        4.4333212176       27.8708096111  MEMB      103             0.0000000000
     13715       109  POPC      H2Y            32.4046485225        4.5269529489       27.1846624193  MEMB      103             0.0000000000
     13716       109  POPC      C23            25.1536547716        1.4236804528       30.5631439563  MEMB      103             0.0000000000
     13717       109  POPC      H3R            25.2898919055        0.4057041824       30.9873141500  MEMB      103             0.0000000000
     13718       109  POPC      H3S            24.3010480572        1.3981863973       29.8456423287  MEMB      103             0.0000000000
     13719       109  POPC      C24            24.7761252933        2.3540274563       31.7200584065  MEMB      103             0.0000000000
     13720       109  POPC      H4R            23.8140252855        1.9786600534       32.1432420208  MEMB      103             0.0000000000
     13721       109  POPC      H4S            24.6151637920        3.3829586800       31.3304634684  MEMB      103             0.0000000000
     13722       109  POPC      C25            25.8013127903        2.3935246244       32.8551111423  MEMB      103             0.0000000000
     13723       109  POPC      H5R            26.6854119571        2.9718235726       32.5081920637  MEMB      103             0.0000000000
     13724       109  POPC      H5S            26.1413777950        1.3572340768       33.0839643358  MEMB      103             0.0000000000
     13725       109  POPC      C26            25.2604578045        3.0195074789       34.1533931070  MEMB      103             0.0000000000
     13726       109  POPC      H6R            24.6053555228        2.2728099647       34.6562303892  MEMB      103             0.0000000000
     13727       109  POPC      H6S            24.6422513079        3.9127230808       33.9182722700  MEMB      103             0.0000000000
     13728       109  POPC      C27            26.4209819429        3.4380050256       35.0703736614  MEMB      103             0.0000000000
     13729       109  POPC      H7R            26.8983439262        4.3397878423       34.6224354137  MEMB      103             0.0000000000
     13730       109  POPC      H7S            27.1807394944        2.6264153157       35.0588374778  MEMB      103             0.0000000000
     13731       109  POPC      C28            26.0621220245        3.7595465461       36.5367736016  MEMB      103             0.0000000000
     13732       109  POPC      H8R            25.4470808586        4.6880740058       36.5397749390  MEMB      103             0.0000000000
     13733       109  POPC      H8S            27.0126854779        4.0055800302       37.0614036333  MEMB      103             0.0000000000
     13734       109  POPC      C29            25.3352559455        2.6814447870       37.3000997091  MEMB      103             0.0000000000
     13735       109  POPC      H91            24.3814614966        3.0128932558       37.7411986006  MEMB      103             0.0000000000
     13736       109  POPC      C210           25.6942257813        1.3937106594       37.4767169544  MEMB      103             0.0000000000
     13737       109  POPC      H101           25.0002996630        0.7421599278       38.0248863754  MEMB      103             0.0000000000
     13738       109  POPC      C211           26.9203090306        0.6825520974       36.9632548787  MEMB      103             0.0000000000
     13739       109  POPC      H11R           27.7555322221        1.4043626819       36.8162204124  MEMB      103             0.0000000000
     13740       109  POPC      H11S           26.7072287394        0.2230607518       35.9729816898  MEMB      103             0.0000000000
     13741       109  POPC      C212           27.4274987891       -0.4251697735       37.9109372196  MEMB      103             0.0000000000
     13742       109  POPC      H12R           27.6503202117        0.0178099742       38.9080565931  MEMB      103             0.0000000000
     13743       109  POPC      H12S           28.3880994681       -0.8078264442       37.4990146640  MEMB      103             0.0000000000
     13744       109  POPC      C213           26.4715024131       -1.6144061751       38.1154538205  MEMB      103             0.0000000000
     13745       109  POPC      H13R           26.3256361279       -2.1779434338       37.1694956886  MEMB      103             0.0000000000
     13746       109  POPC      H13S           25.4729565320       -1.2430014082       38.4392208971  MEMB      103             0.0000000000
     13747       109  POPC      C214           26.9691563170       -2.5549237384       39.2204557754  MEMB      103             0.0000000000
     13748       109  POPC      H14R           26.1763003631       -3.3007199684       39.4374523940  MEMB      103             0.0000000000
     13749       109  POPC      H14S           27.0877469019       -1.9520665670       40.1467220045  MEMB      103             0.0000000000
     13750       109  POPC      C215           28.2882483672       -3.2731850802       38.8895715740  MEMB      103             0.0000000000
     13751       109  POPC      H15R           29.0260278906       -2.5769176227       38.4407660611  MEMB      103             0.0000000000
     13752       109  POPC      H15S           28.0868841018       -4.0547391652       38.1335521919  MEMB      103             0.0000000000
     13753       109  POPC      C216           28.9399993641       -3.9116053182       40.1180545391  MEMB      103             0.0000000000
     13754       109  POPC      H16R           29.7067967201       -4.6591308906       39.8134466818  MEMB      103             0.0000000000
     13755       109  POPC      H16S           28.1578833070       -4.4449525293       40.7039662737  MEMB      103             0.0000000000
     13756       109  POPC      C217           29.6034093155       -2.8682782338       41.0120533895  MEMB      103             0.0000000000
     13757       109  POPC      H17R           29.6413836368       -3.2812764521       42.0421974697  MEMB      103             0.0000000000
     13758       109  POPC      H17S           28.9553906760       -1.9716748465       41.0647024004  MEMB      103             0.0000000000
     13759       109  POPC      C218           31.0135695139       -2.4536717972       40.5832274635  MEMB      103             0.0000000000
     13760       109  POPC      H18R           31.4854982334       -1.8172413378       41.3635739415  MEMB      103             0.0000000000
     13761       109  POPC      H18S           30.9847967903       -1.8745669298       39.6354393926  MEMB      103             0.0000000000
     13762       109  POPC      H18T           31.6466591347       -3.3537322748       40.4330298889  MEMB      103             0.0000000000
     13763       109  POPC      C33            32.3782444477        4.0689127287       29.3281282245  MEMB      103             0.0000000000
     13764       109  POPC      H3X            33.4867165660        3.9842922802       29.2454623116  MEMB      103             0.0000000000
     13765       109  POPC      H3Y            32.0404022729        3.2151939953       29.9492262558  MEMB      103             0.0000000000
     13766       109  POPC      C34            32.0107920804        5.3684795444       30.0468014938  MEMB      103             0.0000000000
     13767       109  POPC      H4X            32.2871700898        6.1796558496       29.3355193899  MEMB      103             0.0000000000
     13768       109  POPC      H4Y            32.6177034448        5.5043436316       30.9670394758  MEMB      103             0.0000000000
     13769       109  POPC      C35            30.5245422103        5.5524699837       30.4018417865  MEMB      103             0.0000000000
     13770       109  POPC      H5X            29.8545337620        5.1622654204       29.6089507277  MEMB      103             0.0000000000
     13771       109  POPC      H5Y            30.3670228378        6.6519992354       30.4201456220  MEMB      103             0.0000000000
     13772       109  POPC      C36            30.1110471162        4.9909194582       31.7729271880  MEMB      103             0.0000000000
     13773       109  POPC      H6X            29.1801830073        5.5054881172       32.1026501254  MEMB      103             0.0000000000
     13774       109  POPC      H6Y            30.8910041929        5.2201476096       32.5301271633  MEMB      103             0.0000000000
     13775       109  POPC      C37            29.7691151419        3.4938958443       31.7573869632  MEMB      103             0.0000000000
     13776       109  POPC      H7X            30.5844162801        2.8953017102       31.3092428810  MEMB      103             0.0000000000
     13777       109  POPC      H7Y            28.8703918283        3.3668085287       31.1118437236  MEMB      103             0.0000000000
     13778       109  POPC      C38            29.4754472779        2.9450910661       33.1576336749  MEMB      103             0.0000000000
     13779       109  POPC      H8X            28.8709751395        2.0138702473       33.0800762817  MEMB      103             0.0000000000
     13780       109  POPC      H8Y            28.8637438583        3.6977528854       33.7028148283  MEMB      103             0.0000000000
     13781       109  POPC      C39            30.7410081102        2.6349974698       33.9734498756  MEMB      103             0.0000000000
     13782       109  POPC      H9X            31.4034237366        3.5282224828       33.9704186471  MEMB      103             0.0000000000
     13783       109  POPC      H9Y            31.2984002030        1.7952869547       33.5037878005  MEMB      103             0.0000000000
     13784       109  POPC      C310           30.3812542813        2.2856241194       35.4221566524  MEMB      103             0.0000000000
     13785       109  POPC      H10X           29.8697297650        1.2980790960       35.4514656249  MEMB      103             0.0000000000
     13786       109  POPC      H10Y           29.6416863456        3.0463903985       35.7546160796  MEMB      103             0.0000000000
     13787       109  POPC      C311           31.5627125640        2.2771042993       36.4062237945  MEMB      103             0.0000000000
     13788       109  POPC      H11X           32.1049788766        3.2473567992       36.3596002923  MEMB      103             0.0000000000
     13789       109  POPC      H11Y           32.2763331096        1.4772991925       36.1048164154  MEMB      103             0.0000000000
     13790       109  POPC      C312           31.0907148965        2.0304032742       37.8503521271  MEMB      103             0.0000000000
     13791       109  POPC      H12X           31.9573486582        1.7999022686       38.5077486272  MEMB      103             0.0000000000
     13792       109  POPC      H12Y           30.4286439481        1.1337699811       37.8380187007  MEMB      103             0.0000000000
     13793       109  POPC      C313           30.3081308141        3.2145409101       38.4515561310  MEMB      103             0.0000000000
     13794       109  POPC      H13X           29.6997081359        3.7016689809       37.6593302616  MEMB      103             0.0000000000
     13795       109  POPC      H13Y           31.0132052199        3.9838585299       38.8323541472  MEMB      103             0.0000000000
     13796       109  POPC      C314           29.3244436905        2.7841279116       39.5483704255  MEMB      103             0.0000000000
     13797       109  POPC      H14X           29.8800843292        2.3894014950       40.4251920087  MEMB      103             0.0000000000
     13798       109  POPC      H14Y           28.7014111329        1.9557667411       39.1410870609  MEMB      103             0.0000000000
     13799       109  POPC      C315           28.3835222385        3.9167031085       39.9775569468  MEMB      103             0.0000000000
     13800       109  POPC      H15X           27.9537049504        4.3853160315       39.0635279077  MEMB      103             0.0000000000
     13801       109  POPC      H15Y           28.9724613606        4.7005514327       40.5033213430  MEMB      103             0.0000000000
     13802       109  POPC      C316           27.2347806173        3.4473074642       40.8729777078  MEMB      103             0.0000000000
     13803       109  POPC      H16X           27.6269619640        3.0733590907       41.8428196531  MEMB      103             0.0000000000
     13804       109  POPC      H16Y           26.6631677517        2.6293196712       40.3818341349  MEMB      103             0.0000000000
     13805       109  POPC      H16Z           26.5389086123        4.2889214849       41.0756318948  MEMB      103             0.0000000000
     13806       110  POPS      N              44.6010834388        4.3788427812       24.1902489653  MEMB      104             0.0000000000
     13807       110  POPS      HN1            45.0111702800        3.4138663021       24.1958541527  MEMB      104             0.0000000000
     13808       110  POPS      HN2            45.2448544637        5.0424304977       23.7277743346  MEMB      104             0.0000000000
     13809       110  POPS      HN3            44.3816661302        4.6830755608       25.1768448030  MEMB      104             0.0000000000
     13810       110  POPS      C12            43.2588417041        4.3261749856       23.5319753496  MEMB      104             0.0000000000
     13811       110  POPS      H12A           43.2093580599        5.0965374440       22.7792105528  MEMB      104             0.0000000000
     13812       110  POPS      C13            42.1460045074        4.5768257000       24.5496506773  MEMB      104             0.0000000000
     13813       110  POPS      O13A           42.4459061596        4.5394463812       25.7753147225  MEMB      104             0.0000000000
     13814       110  POPS      O13B           40.9861607124        4.7592378470       24.0900567368  MEMB      104             0.0000000000
     13815       110  POPS      C11            42.9062070034        2.9041976118       22.9848766142  MEMB      104             0.0000000000
     13816       110  POPS      H11A           41.9037935308        2.9887746949       22.4985732600  MEMB      104             0.0000000000
     13817       110  POPS      H11B           42.7535966093        2.1993740188       23.8422093049  MEMB      104             0.0000000000
     13818       110  POPS      P              44.9421423081        1.3477900457       22.4967470111  MEMB      104             0.0000000000
     13819       110  POPS      O13            46.1717795508        1.6601627158       21.7524498281  MEMB      104             0.0000000000
     13820       110  POPS      O14            44.3805310133       -0.0045069247       22.3762851291  MEMB      104             0.0000000000
     13821       110  POPS      O12            43.8450702428        2.4069492963       22.0308355816  MEMB      104             0.0000000000
     13822       110  POPS      O11            45.2143907436        1.6959101928       24.0309547125  MEMB      104             0.0000000000
     13823       110  POPS      C1             46.2443881461        0.9302407617       24.6914063884  MEMB      104             0.0000000000
     13824       110  POPS      HA             47.2440025231        1.2606835666       24.3155276837  MEMB      104             0.0000000000
     13825       110  POPS      HB             46.1855949638       -0.1644911190       24.4787341150  MEMB      104             0.0000000000
     13826       110  POPS      C2             46.2741501807        1.1693101410       26.2396813037  MEMB      104             0.0000000000
     13827       110  POPS      HS             47.2773134788        0.8653637537       26.6124322969  MEMB      104             0.0000000000
     13828       110  POPS      O21            45.2891156157        0.4931137346       27.0215207498  MEMB      104             0.0000000000
     13829       110  POPS      C21            44.5514641181       -0.4658853934       26.5419216256  MEMB      104             0.0000000000
     13830       110  POPS      O22            44.9273930312       -1.5052747657       26.0385107161  MEMB      104             0.0000000000
     13831       110  POPS      C22            43.0855481227       -0.0893089896       26.7297939798  MEMB      104             0.0000000000
     13832       110  POPS      H2R            42.4976355736       -1.0223544535       26.8380558781  MEMB      104             0.0000000000
     13833       110  POPS      H2S            42.7493519125        0.4523938886       25.8204317351  MEMB      104             0.0000000000
     13834       110  POPS      C3             46.0560148535        2.6699944738       26.5504209274  MEMB      104             0.0000000000
     13835       110  POPS      HX             45.0999978461        2.9227108288       26.0590374947  MEMB      104             0.0000000000
     13836       110  POPS      HY             46.8758991341        3.2734293656       26.1011956504  MEMB      104             0.0000000000
     13837       110  POPS      O31            45.8162414230        2.9119629086       27.9424591055  MEMB      104             0.0000000000
     13838       110  POPS      C31            46.7452302949        3.5571825813       28.6023399568  MEMB      104             0.0000000000
     13839       110  POPS      O32            47.6986039511        4.1359470004       28.1113029803  MEMB      104             0.0000000000
     13840       110  POPS      C32            46.4973823075        3.3710783490       30.0968278283  MEMB      104             0.0000000000
     13841       110  POPS      H2X            45.4186980409        3.4857359048       30.3361596711  MEMB      104             0.0000000000
     13842       110  POPS      H2Y            47.0848925591        4.1480741237       30.6176606888  MEMB      104             0.0000000000
     13843       110  POPS      C23            42.8880279023        0.8087685500       27.9649716507  MEMB      104             0.0000000000
     13844       110  POPS      H3R            43.5303572683        1.7202571933       27.9044677384  MEMB      104             0.0000000000
     13845       110  POPS      H3S            43.1976062855        0.2305049482       28.8632073735  MEMB      104             0.0000000000
     13846       110  POPS      C24            41.4624035241        1.3340292894       28.1146705787  MEMB      104             0.0000000000
     13847       110  POPS      H4R            40.7442302934        0.4900861489       28.1818077947  MEMB      104             0.0000000000
     13848       110  POPS      H4S            41.2045847799        1.9343300873       27.2119608932  MEMB      104             0.0000000000
     13849       110  POPS      C25            41.3259615048        2.2399977657       29.3402031078  MEMB      104             0.0000000000
     13850       110  POPS      H5R            40.2520828173        2.4941486378       29.4832219944  MEMB      104             0.0000000000
     13851       110  POPS      H5S            41.8661277441        3.1978043914       29.1598604475  MEMB      104             0.0000000000
     13852       110  POPS      C26            41.8795830042        1.5727872702       30.5984799695  MEMB      104             0.0000000000
     13853       110  POPS      H6R            42.9852712934        1.7069923612       30.6304007656  MEMB      104             0.0000000000
     13854       110  POPS      H6S            41.6793072751        0.4823821855       30.5264788131  MEMB      104             0.0000000000
     13855       110  POPS      C27            41.2536592904        2.1014226820       31.8863803437  MEMB      104             0.0000000000
     13856       110  POPS      H7R            41.6439811575        1.4544389432       32.7020469162  MEMB      104             0.0000000000
     13857       110  POPS      H7S            40.1488496737        1.9718817139       31.8548475778  MEMB      104             0.0000000000
     13858       110  POPS      C28            41.6034005722        3.5727468730       32.1567482386  MEMB      104             0.0000000000
     13859       110  POPS      H8R            41.0320747569        4.2284297578       31.4612909674  MEMB      104             0.0000000000
     13860       110  POPS      H8S            42.6812185775        3.7239336468       31.9233028651  MEMB      104             0.0000000000
     13861       110  POPS      C29            41.3213547971        3.9195044800       33.5934366501  MEMB      104             0.0000000000
     13862       110  POPS      H91            40.3594202665        4.4153589013       33.7869341435  MEMB      104             0.0000000000
     13863       110  POPS      C210           42.1230288828        3.5997510375       34.6214759648  MEMB      104             0.0000000000
     13864       110  POPS      H101           41.8220759846        3.8744640178       35.6431559405  MEMB      104             0.0000000000
     13865       110  POPS      C211           43.4261215668        2.8510556850       34.5227594127  MEMB      104             0.0000000000
     13866       110  POPS      H11R           44.1607307800        3.3713257930       35.1531644940  MEMB      104             0.0000000000
     13867       110  POPS      H11S           43.8350436537        2.8352850061       33.4893065122  MEMB      104             0.0000000000
     13868       110  POPS      C212           43.3567843144        1.4013397593       35.0244974250  MEMB      104             0.0000000000
     13869       110  POPS      H12R           42.6988581570        0.8084953352       34.3564395325  MEMB      104             0.0000000000
     13870       110  POPS      H12S           42.9263810341        1.3929953842       36.0449304320  MEMB      104             0.0000000000
     13871       110  POPS      C213           44.7203088640        0.7159699641       35.0948622571  MEMB      104             0.0000000000
     13872       110  POPS      H13R           45.1573149568        0.6953659660       34.0721058104  MEMB      104             0.0000000000
     13873       110  POPS      H13S           44.5879088041       -0.3418782034       35.4133963053  MEMB      104             0.0000000000
     13874       110  POPS      C214           45.6988417113        1.4085181778       36.0552823557  MEMB      104             0.0000000000
     13875       110  POPS      H14R           45.9180321379        2.4484523410       35.7336681254  MEMB      104             0.0000000000
     13876       110  POPS      H14S           46.6538078124        0.8598095555       35.9833953617  MEMB      104             0.0000000000
     13877       110  POPS      C215           45.2460374833        1.4422606122       37.5154813081  MEMB      104             0.0000000000
     13878       110  POPS      H15R           44.6811803820        0.5068090486       37.7315985290  MEMB      104             0.0000000000
     13879       110  POPS      H15S           44.5565317138        2.3016992720       37.6420223784  MEMB      104             0.0000000000
     13880       110  POPS      C216           46.3721885433        1.5344130632       38.5539411263  MEMB      104             0.0000000000
     13881       110  POPS      H16R           46.7435269853        0.5019448465       38.6977611170  MEMB      104             0.0000000000
     13882       110  POPS      H16S           45.9584607078        1.8734024914       39.5305028543  MEMB      104             0.0000000000
     13883       110  POPS      C217           47.5993369140        2.3668218140       38.1669167775  MEMB      104             0.0000000000
     13884       110  POPS      H17R           47.3784500338        3.4420232510       38.3214532058  MEMB      104             0.0000000000
     13885       110  POPS      H17S           47.8233435567        2.2405388251       37.0857351986  MEMB      104             0.0000000000
     13886       110  POPS      C218           48.8632619656        1.9461534799       38.9256491924  MEMB      104             0.0000000000
     13887       110  POPS      H18R           48.8354303822        0.8737709041       39.1861231147  MEMB      104             0.0000000000
     13888       110  POPS      H18S           48.9717400143        2.4890612909       39.8838511601  MEMB      104             0.0000000000
     13889       110  POPS      H18T           49.7578845966        2.0969397952       38.2876466846  MEMB      104             0.0000000000
     13890       110  POPS      C33            46.9852712975        1.9534994242       30.4446621096  MEMB      104             0.0000000000
     13891       110  POPS      H3X            47.8668652503        1.7523365156       29.7952009735  MEMB      104             0.0000000000
     13892       110  POPS      H3Y            46.2164433891        1.2179687735       30.1119098861  MEMB      104             0.0000000000
     13893       110  POPS      C34            47.4063442819        1.6456539876       31.8971043227  MEMB      104             0.0000000000
     13894       110  POPS      H4X            48.5055799085        1.5881312732       32.0009627882  MEMB      104             0.0000000000
     13895       110  POPS      H4Y            47.0148396325        0.6219943534       32.1076795656  MEMB      104             0.0000000000
     13896       110  POPS      C35            46.9643533682        2.5757005336       33.0301872940  MEMB      104             0.0000000000
     13897       110  POPS      H5X            46.8971030389        1.9089962040       33.9157238901  MEMB      104             0.0000000000
     13898       110  POPS      H5Y            45.9587064846        2.9945310130       32.8310579187  MEMB      104             0.0000000000
     13899       110  POPS      C36            47.9781988146        3.6599434010       33.4482297681  MEMB      104             0.0000000000
     13900       110  POPS      H6X            48.8596809436        3.6279675476       32.7668016395  MEMB      104             0.0000000000
     13901       110  POPS      H6Y            48.3556987105        3.4497010068       34.4739455324  MEMB      104             0.0000000000
     13902       110  POPS      C37            47.3633096210        5.0620852305       33.3947153435  MEMB      104             0.0000000000
     13903       110  POPS      H7X            46.9039091650        5.1323471478       32.3916663592  MEMB      104             0.0000000000
     13904       110  POPS      H7Y            48.1413536724        5.8424461172       33.4314716178  MEMB      104             0.0000000000
     13905       110  POPS      C38            46.2874772042        5.3764382674       34.4528846335  MEMB      104             0.0000000000
     13906       110  POPS      H8X            45.6163084922        4.5075078783       34.5213351238  MEMB      104             0.0000000000
     13907       110  POPS      H8Y            45.6871703150        6.2454731636       34.1023705654  MEMB      104             0.0000000000
     13908       110  POPS      C39            46.8606767883        5.7281904236       35.8327196434  MEMB      104             0.0000000000
     13909       110  POPS      H9X            47.5353901291        6.5992917152       35.6804744103  MEMB      104             0.0000000000
     13910       110  POPS      H9Y            47.4521200105        4.8641884905       36.2043039064  MEMB      104             0.0000000000
     13911       110  POPS      C310           45.8582130368        6.1147395206       36.9342010574  MEMB      104             0.0000000000
     13912       110  POPS      H10X           45.2145052541        6.9358921833       36.6032048057  MEMB      104             0.0000000000
     13913       110  POPS      H10Y           46.4440893233        6.4784868066       37.8074207159  MEMB      104             0.0000000000
     13914       110  POPS      C311           44.9447917224        4.9697999193       37.3533375406  MEMB      104             0.0000000000
     13915       110  POPS      H11X           45.5882241237        4.0709126187       37.4092746810  MEMB      104             0.0000000000
     13916       110  POPS      H11Y           44.1850270017        4.8044201833       36.5623092018  MEMB      104             0.0000000000
     13917       110  POPS      C312           44.2192919721        5.1348385182       38.6976059368  MEMB      104             0.0000000000
     13918       110  POPS      H12X           43.8009306427        4.1378680022       38.9372049436  MEMB      104             0.0000000000
     13919       110  POPS      H12Y           43.3572698993        5.8274073716       38.5971226016  MEMB      104             0.0000000000
     13920       110  POPS      C313           45.1195852963        5.5897826172       39.8537668722  MEMB      104             0.0000000000
     13921       110  POPS      H13X           45.1701830390        6.7007011946       39.8435899072  MEMB      104             0.0000000000
     13922       110  POPS      H13Y           46.1533981547        5.2076996250       39.7023716063  MEMB      104             0.0000000000
     13923       110  POPS      C314           44.6360079339        5.1365815405       41.2375706257  MEMB      104             0.0000000000
     13924       110  POPS      H14X           44.6526093888        4.0256034474       41.2987056192  MEMB      104             0.0000000000
     13925       110  POPS      H14Y           43.5804108694        5.4622719018       41.3702461850  MEMB      104             0.0000000000
     13926       110  POPS      C315           45.5051257571        5.7266225076       42.3591559976  MEMB      104             0.0000000000
     13927       110  POPS      H15X           45.9899403741        6.6521811070       41.9705593255  MEMB      104             0.0000000000
     13928       110  POPS      H15Y           46.3275411413        5.0140032619       42.5951915111  MEMB      104             0.0000000000
     13929       110  POPS      C316           44.7316543388        6.0904475944       43.6305812541  MEMB      104             0.0000000000
     13930       110  POPS      H16X           44.8333162270        7.1734244868       43.8468075839  MEMB      104             0.0000000000
     13931       110  POPS      H16Y           45.0965440947        5.5251581545       44.5094191981  MEMB      104             0.0000000000
     13932       110  POPS      H16Z           43.6537292096        5.8651141016       43.5143364762  MEMB      104             0.0000000000
     13933       111  POPC      N               1.5410049052       31.5742779561       22.6254629952  MEMB      105             0.0000000000
     13934       111  POPC      C12             2.4287828397       30.3948080297       22.2627301929  MEMB      105             0.0000000000
     13935       111  POPC      H12A            2.5407380579       30.3643626227       21.1832417160  MEMB      105             0.0000000000
     13936       111  POPC      H12B            1.9279331491       29.4757011595       22.5311312147  MEMB      105             0.0000000000
     13937       111  POPC      C13             2.0923411553       32.8291375321       22.0155151463  MEMB      105             0.0000000000
     13938       111  POPC      H13A            3.1679651586       32.8683731496       22.1918822258  MEMB      105             0.0000000000
     13939       111  POPC      H13B            1.9235890810       32.8294793741       20.9477109985  MEMB      105             0.0000000000
     13940       111  POPC      H13C            1.6034930792       33.7021183467       22.4262182926  MEMB      105             0.0000000000
     13941       111  POPC      C14             0.1699194090       31.3907988326       22.0739208755  MEMB      105             0.0000000000
     13942       111  POPC      H14A           -0.4007232827       30.6545081439       22.6319254920  MEMB      105             0.0000000000
     13943       111  POPC      H14B           -0.4073637696       32.3136591255       22.1408301201  MEMB      105             0.0000000000
     13944       111  POPC      H14C            0.1693602966       31.1548526417       21.0140557675  MEMB      105             0.0000000000
     13945       111  POPC      C15             1.4037545022       31.7310678349       24.1100043535  MEMB      105             0.0000000000
     13946       111  POPC      H15A            0.9291110932       32.6735471771       24.3756821091  MEMB      105             0.0000000000
     13947       111  POPC      H15B            2.3808289660       31.7182091279       24.5886038019  MEMB      105             0.0000000000
     13948       111  POPC      H15C            0.7961762304       30.9346056229       24.5225689277  MEMB      105             0.0000000000
     13949       111  POPC      C11             3.8435215606       30.3302785064       22.8991112759  MEMB      105             0.0000000000
     13950       111  POPC      H11A            4.4197986402       29.5190779445       22.3937069037  MEMB      105             0.0000000000
     13951       111  POPC      H11B            3.7012761797       30.0192247939       23.9632262978  MEMB      105             0.0000000000
     13952       111  POPC      P               5.7181962935       31.8514106618       23.8198540395  MEMB      105             0.0000000000
     13953       111  POPC      O13             6.1542455588       33.2559553778       23.6368797250  MEMB      105             0.0000000000
     13954       111  POPC      O14             6.7261020747       30.7769551701       23.6236153814  MEMB      105             0.0000000000
     13955       111  POPC      O12             4.5597092773       31.5646294246       22.7756809536  MEMB      105             0.0000000000
     13956       111  POPC      O11             4.9792006591       31.7015336970       25.2016202929  MEMB      105             0.0000000000
     13957       111  POPC      C1              5.2550749043       32.6400131015       26.2470155288  MEMB      105             0.0000000000
     13958       111  POPC      HA              6.0614155766       33.3775113962       26.0150834275  MEMB      105             0.0000000000
     13959       111  POPC      HB              5.6410914146       32.0767079041       27.1252814497  MEMB      105             0.0000000000
     13960       111  POPC      C2              3.9893040790       33.4288451839       26.7022258987  MEMB      105             0.0000000000
     13961       111  POPC      HS              4.2878230157       33.9121636194       27.6594404728  MEMB      105             0.0000000000
     13962       111  POPC      O21             2.8429266011       32.5788661941       26.8842759597  MEMB      105             0.0000000000
     13963       111  POPC      C21             2.9746397510       31.7221518757       27.8727448971  MEMB      105             0.0000000000
     13964       111  POPC      O22             3.8430485651       31.7206102732       28.7248511450  MEMB      105             0.0000000000
     13965       111  POPC      C22             1.8051709847       30.7479344601       27.8251444263  MEMB      105             0.0000000000
     13966       111  POPC      H2R             1.8895117410       30.1543060476       26.8918754623  MEMB      105             0.0000000000
     13967       111  POPC      H2S             0.8545057148       31.3205788174       27.7941839147  MEMB      105             0.0000000000
     13968       111  POPC      C3              3.5567334215       34.5691807801       25.7472912492  MEMB      105             0.0000000000
     13969       111  POPC      HX              2.8754558961       34.1622600232       24.9672591207  MEMB      105             0.0000000000
     13970       111  POPC      HY              4.4473400721       34.9450420404       25.2059015559  MEMB      105             0.0000000000
     13971       111  POPC      O31             2.9814507963       35.6513791531       26.5151999825  MEMB      105             0.0000000000
     13972       111  POPC      C31             1.6724368233       35.7434869136       26.5408853294  MEMB      105             0.0000000000
     13973       111  POPC      O32             0.8771903024       35.0730730304       25.9092040170  MEMB      105             0.0000000000
     13974       111  POPC      C32             1.2829098861       36.9032526053       27.4670519214  MEMB      105             0.0000000000
     13975       111  POPC      H2X             0.3143516434       37.2993343360       27.0830680095  MEMB      105             0.0000000000
     13976       111  POPC      H2Y             2.0400039320       37.7075724737       27.4072013110  MEMB      105             0.0000000000
     13977       111  POPC      C23             1.8415366127       29.8221485015       29.0561738793  MEMB      105             0.0000000000
     13978       111  POPC      H3R             2.8789189993       29.4563683081       29.2349092563  MEMB      105             0.0000000000
     13979       111  POPC      H3S             1.2294394258       28.9250227335       28.8413195574  MEMB      105             0.0000000000
     13980       111  POPC      C24             1.3152980328       30.5310486047       30.3129116512  MEMB      105             0.0000000000
     13981       111  POPC      H4R             0.2171068141       30.6832628836       30.2301399293  MEMB      105             0.0000000000
     13982       111  POPC      H4S             1.7898148415       31.5396086887       30.3789531347  MEMB      105             0.0000000000
     13983       111  POPC      C25             1.6530107667       29.7946576799       31.6158584553  MEMB      105             0.0000000000
     13984       111  POPC      H5R             2.7460960192       29.5744899555       31.6234494253  MEMB      105             0.0000000000
     13985       111  POPC      H5S             1.1173454481       28.8220191530       31.6703578106  MEMB      105             0.0000000000
     13986       111  POPC      C26             1.3270621076       30.6344550314       32.8605458566  MEMB      105             0.0000000000
     13987       111  POPC      H6R             1.8496955098       31.6140822952       32.7907852690  MEMB      105             0.0000000000
     13988       111  POPC      H6S             1.7240470362       30.0909303839       33.7472908092  MEMB      105             0.0000000000
     13989       111  POPC      C27            -0.1730434283       30.8899518910       33.0632607983  MEMB      105             0.0000000000
     13990       111  POPC      H7R            -0.6945553388       29.9162668695       32.9302080437  MEMB      105             0.0000000000
     13991       111  POPC      H7S            -0.5400564084       31.5646106751       32.2605649717  MEMB      105             0.0000000000
     13992       111  POPC      C28            -0.4996553936       31.4472132165       34.4640321351  MEMB      105             0.0000000000
     13993       111  POPC      H8R             0.3862472931       31.2902055344       35.1204496022  MEMB      105             0.0000000000
     13994       111  POPC      H8S            -1.3122378564       30.8386714812       34.9152456989  MEMB      105             0.0000000000
     13995       111  POPC      C29            -0.9461206055       32.8836515234       34.4692780166  MEMB      105             0.0000000000
     13996       111  POPC      H91            -2.0049333441       33.0468926992       34.2112344351  MEMB      105             0.0000000000
     13997       111  POPC      C210           -0.1780632064       33.9490729940       34.7545152014  MEMB      105             0.0000000000
     13998       111  POPC      H101           -0.6500159188       34.9352134493       34.7595676554  MEMB      105             0.0000000000
     13999       111  POPC      C211            1.2830618357       33.9501773318       35.1234291722  MEMB      105             0.0000000000
     14000       111  POPC      H11R            1.8056899238       34.7825641440       34.6015685109  MEMB      105             0.0000000000
     14001       111  POPC      H11S            1.7747246276       33.0123698680       34.7904807397  MEMB      105             0.0000000000
     14002       111  POPC      C212            1.5025129312       34.1043384221       36.6381645434  MEMB      105             0.0000000000
     14003       111  POPC      H12R            1.2137123791       35.1302940787       36.9578696817  MEMB      105             0.0000000000
     14004       111  POPC      H12S            2.5857153228       33.9687776468       36.8624869489  MEMB      105             0.0000000000
     14005       111  POPC      C213            0.6929020415       33.0882977421       37.4474450607  MEMB      105             0.0000000000
     14006       111  POPC      H13R            1.0595280673       32.0721844551       37.2191737060  MEMB      105             0.0000000000
     14007       111  POPC      H13S           -0.3761774160       33.1136211899       37.1448439994  MEMB      105             0.0000000000
     14008       111  POPC      C214            0.6736068567       33.3523093054       38.9457330229  MEMB      105             0.0000000000
     14009       111  POPC      H14R            0.0386255904       32.5644800217       39.4161554585  MEMB      105             0.0000000000
     14010       111  POPC      H14S            0.1770770731       34.3323443372       39.1276484097  MEMB      105             0.0000000000
     14011       111  POPC      C215            2.0287893552       33.3600389368       39.6536326049  MEMB      105             0.0000000000
     14012       111  POPC      H15R            2.5683437635       34.3072787311       39.4298369799  MEMB      105             0.0000000000
     14013       111  POPC      H15S            2.6603602746       32.5115413146       39.3143237639  MEMB      105             0.0000000000
     14014       111  POPC      C216            1.7364814577       33.2281903183       41.1476532397  MEMB      105             0.0000000000
     14015       111  POPC      H16R            1.4693840461       32.1719536705       41.3726337905  MEMB      105             0.0000000000
     14016       111  POPC      H16S            0.8417467635       33.8499454981       41.3397830688  MEMB      105             0.0000000000
     14017       111  POPC      C217            2.8272507641       33.7054157363       42.0935677087  MEMB      105             0.0000000000
     14018       111  POPC      H17R            3.8047960467       33.6087927894       41.5833471074  MEMB      105             0.0000000000
     14019       111  POPC      H17S            2.8385527651       33.0146653350       42.9634278490  MEMB      105             0.0000000000
     14020       111  POPC      C218            2.5917686031       35.1290708647       42.6022047412  MEMB      105             0.0000000000
     14021       111  POPC      H18R            2.4967136655       35.8226052322       41.7407962469  MEMB      105             0.0000000000
     14022       111  POPC      H18S            3.4299414524       35.4820349770       43.2387377610  MEMB      105             0.0000000000
     14023       111  POPC      H18T            1.6558848470       35.1858041880       43.2006564901  MEMB      105             0.0000000000
     14024       111  POPC      C33             1.0560566413       36.4416449834       28.9257060743  MEMB      105             0.0000000000
     14025       111  POPC      H3X             0.6368973607       35.4171313452       28.9446176371  MEMB      105             0.0000000000
     14026       111  POPC      H3Y             0.2836501095       37.1223449307       29.3690752203  MEMB      105             0.0000000000
     14027       111  POPC      C34             2.2650727130       36.5194620559       29.8727471366  MEMB      105             0.0000000000
     14028       111  POPC      H4X             1.8993463875       36.7705560611       30.8957767649  MEMB      105             0.0000000000
     14029       111  POPC      H4Y             2.8464122246       37.3789625369       29.5131371248  MEMB      105             0.0000000000
     14030       111  POPC      C35             3.1236336374       35.2399622165       30.0190307452  MEMB      105             0.0000000000
     14031       111  POPC      H5X             3.7051868123       35.1126660585       29.0863360593  MEMB      105             0.0000000000
     14032       111  POPC      H5Y             2.4503307238       34.3629702633       30.1363056408  MEMB      105             0.0000000000
     14033       111  POPC      C36             4.1191662493       35.2564794049       31.2074125859  MEMB      105             0.0000000000
     14034       111  POPC      H6X             3.8916884303       36.1637928624       31.8112168031  MEMB      105             0.0000000000
     14035       111  POPC      H6Y             5.1585103802       35.3820647008       30.8319723335  MEMB      105             0.0000000000
     14036       111  POPC      C37             4.0614581836       34.0603726915       32.1913169634  MEMB      105             0.0000000000
     14037       111  POPC      H7X             3.0228347349       33.6778607477       32.2832849526  MEMB      105             0.0000000000
     14038       111  POPC      H7Y             4.3407636029       34.4668780536       33.1913204064  MEMB      105             0.0000000000
     14039       111  POPC      C38             5.0393202833       32.8970869094       31.9084431761  MEMB      105             0.0000000000
     14040       111  POPC      H8X             5.9365492209       33.2979978534       31.3841740329  MEMB      105             0.0000000000
     14041       111  POPC      H8Y             4.5638737509       32.1645632592       31.2184439320  MEMB      105             0.0000000000
     14042       111  POPC      C39             5.5395874950       32.1824818445       33.1880360367  MEMB      105             0.0000000000
     14043       111  POPC      H9X             5.9893799226       32.9471131160       33.8590421191  MEMB      105             0.0000000000
     14044       111  POPC      H9Y             6.3416627972       31.4589044006       32.9209617356  MEMB      105             0.0000000000
     14045       111  POPC      C310            4.4357451794       31.4391040563       33.9565424669  MEMB      105             0.0000000000
     14046       111  POPC      H10X            4.1263362681       30.5401970404       33.3789343105  MEMB      105             0.0000000000
     14047       111  POPC      H10Y            3.5575908166       32.1161533165       34.0206782447  MEMB      105             0.0000000000
     14048       111  POPC      C311            4.7901014889       31.0219781662       35.3949201810  MEMB      105             0.0000000000
     14049       111  POPC      H11X            5.1801329920       31.9107775459       35.9408570516  MEMB      105             0.0000000000
     14050       111  POPC      H11Y            5.5833067773       30.2429124079       35.3836402876  MEMB      105             0.0000000000
     14051       111  POPC      C312            3.5427198533       30.5025217374       36.1308300995  MEMB      105             0.0000000000
     14052       111  POPC      H12X            3.1302711433       29.6315772401       35.5744513560  MEMB      105             0.0000000000
     14053       111  POPC      H12Y            2.7723188753       31.3051913904       36.1055320372  MEMB      105             0.0000000000
     14054       111  POPC      C313            3.7690483459       30.0987842566       37.5962086239  MEMB      105             0.0000000000
     14055       111  POPC      H13X            4.2073053600       30.9564592296       38.1529807148  MEMB      105             0.0000000000
     14056       111  POPC      H13Y            4.4974484223       29.2605000217       37.6355085105  MEMB      105             0.0000000000
     14057       111  POPC      C314            2.4569441172       29.6749911102       38.2814455385  MEMB      105             0.0000000000
     14058       111  POPC      H14X            2.0329026708       28.7895901996       37.7636938192  MEMB      105             0.0000000000
     14059       111  POPC      H14Y            1.7160726044       30.4915101254       38.1825495574  MEMB      105             0.0000000000
     14060       111  POPC      C315            2.5873464785       29.3826036795       39.7795152461  MEMB      105             0.0000000000
     14061       111  POPC      H15X            3.0422552186       30.2707916770       40.2761326550  MEMB      105             0.0000000000
     14062       111  POPC      H15Y            3.2736147957       28.5199478560       39.9209889138  MEMB      105             0.0000000000
     14063       111  POPC      C316            1.2434837311       29.0708692947       40.4444646267  MEMB      105             0.0000000000
     14064       111  POPC      H16X            0.5237754007       29.8970245346       40.2650591775  MEMB      105             0.0000000000
     14065       111  POPC      H16Y            1.3622599251       28.9430682523       41.5410505324  MEMB      105             0.0000000000
     14066       111  POPC      H16Z            0.8159106936       28.1337766888       40.0296831083  MEMB      105             0.0000000000
     14067       112  POPS      N              61.1320779847       34.8624749626       21.0255295953  MEMB      106             0.0000000000
     14068       112  POPS      HN1            60.5361960617       34.1844234943       21.5561135485  MEMB      106             0.0000000000
     14069       112  POPS      HN2            60.5678094821       35.2849259834       20.2794787231  MEMB      106             0.0000000000
     14070       112  POPS      HN3            61.9650673583       34.3578762671       20.6511111820  MEMB      106             0.0000000000
     14071       112  POPS      C12            61.6195394259       35.8433996599       22.0163579188  MEMB      106             0.0000000000
     14072       112  POPS      H12A           60.9188310044       36.6613986905       22.0888076481  MEMB      106             0.0000000000
     14073       112  POPS      C13            63.0120032417       36.3985326902       21.6945792238  MEMB      106             0.0000000000
     14074       112  POPS      O13A           63.7621585465       35.7383248072       20.9348604987  MEMB      106             0.0000000000
     14075       112  POPS      O13B           63.3292554754       37.4994630280       22.2034708184  MEMB      106             0.0000000000
     14076       112  POPS      C11            61.6778982479       35.0831647844       23.3507283619  MEMB      106             0.0000000000
     14077       112  POPS      H11A           62.1338768771       35.7487564781       24.1301450801  MEMB      106             0.0000000000
     14078       112  POPS      H11B           62.3665721121       34.2128163413       23.2688322357  MEMB      106             0.0000000000
     14079       112  POPS      P              59.5484172493       35.5016838817       24.7107713476  MEMB      106             0.0000000000
     14080       112  POPS      O13            58.2351893770       34.9071954912       25.0060621560  MEMB      106             0.0000000000
     14081       112  POPS      O14            59.5460900795       36.8869635877       24.1893203766  MEMB      106             0.0000000000
     14082       112  POPS      O12            60.3495841704       34.6177208045       23.6631823497  MEMB      106             0.0000000000
     14083       112  POPS      O11            60.4914193646       35.4455623689       25.9580969865  MEMB      106             0.0000000000
     14084       112  POPS      C1             60.7676846321       34.1409755697       26.4462482477  MEMB      106             0.0000000000
     14085       112  POPS      HA             61.2762793005       33.5040106772       25.6835259479  MEMB      106             0.0000000000
     14086       112  POPS      HB             59.8264321912       33.6165013408       26.7411099807  MEMB      106             0.0000000000
     14087       112  POPS      C2             61.6828810636       34.2523353411       27.6720134785  MEMB      106             0.0000000000
     14088       112  POPS      HS             61.5956025494       33.2945905428       28.2239742517  MEMB      106             0.0000000000
     14089       112  POPS      O21            61.3395374077       35.3356383847       28.5473444231  MEMB      106             0.0000000000
     14090       112  POPS      C21            60.1072142853       35.3212718544       29.0043498815  MEMB      106             0.0000000000
     14091       112  POPS      O22            59.2781781474       34.4452481322       28.8586936617  MEMB      106             0.0000000000
     14092       112  POPS      C22            59.8992349201       36.4858232486       29.9460846891  MEMB      106             0.0000000000
     14093       112  POPS      H2R            59.0038051014       37.0503371707       29.6184452679  MEMB      106             0.0000000000
     14094       112  POPS      H2S            60.7834014031       37.1573799622       29.9310857438  MEMB      106             0.0000000000
     14095       112  POPS      C3             63.1514928660       34.4339850459       27.2302129988  MEMB      106             0.0000000000
     14096       112  POPS      HX             63.3316887860       35.5003023138       26.9570655651  MEMB      106             0.0000000000
     14097       112  POPS      HY             63.3389246560       33.8303360159       26.3164807984  MEMB      106             0.0000000000
     14098       112  POPS      O31            64.0049862405       33.9491201155       28.2762271153  MEMB      106             0.0000000000
     14099       112  POPS      C31            64.2292731475       34.8335200421       29.2337647188  MEMB      106             0.0000000000
     14100       112  POPS      O32            64.0978823124       36.0395273779       29.1435560835  MEMB      106             0.0000000000
     14101       112  POPS      C32            64.6492072790       34.0639686812       30.4873662985  MEMB      106             0.0000000000
     14102       112  POPS      H2X            65.2287520831       33.1692548602       30.1697743702  MEMB      106             0.0000000000
     14103       112  POPS      H2Y            63.7269559618       33.7288106505       30.9988963228  MEMB      106             0.0000000000
     14104       112  POPS      C23            59.6898851355       35.8746472601       31.3435029887  MEMB      106             0.0000000000
     14105       112  POPS      H3R            58.8408817657       35.1548817401       31.3472331760  MEMB      106             0.0000000000
     14106       112  POPS      H3S            59.3978898004       36.7027807830       32.0217389671  MEMB      106             0.0000000000
     14107       112  POPS      C24            60.9795562410       35.1651399245       31.8039528771  MEMB      106             0.0000000000
     14108       112  POPS      H4R            61.8376076870       35.8566953615       31.6334661154  MEMB      106             0.0000000000
     14109       112  POPS      H4S            61.1585475124       34.2799033118       31.1579817498  MEMB      106             0.0000000000
     14110       112  POPS      C25            60.9964038338       34.7136880500       33.2686044123  MEMB      106             0.0000000000
     14111       112  POPS      H5R            62.0377767182       34.4177967604       33.5321858795  MEMB      106             0.0000000000
     14112       112  POPS      H5S            60.3463191986       33.8170781970       33.3939792876  MEMB      106             0.0000000000
     14113       112  POPS      C26            60.5185735742       35.7975437838       34.2386151450  MEMB      106             0.0000000000
     14114       112  POPS      H6R            60.7573645737       35.4865222439       35.2786062734  MEMB      106             0.0000000000
     14115       112  POPS      H6S            59.4111767958       35.8521289547       34.1622409944  MEMB      106             0.0000000000
     14116       112  POPS      C27            61.1200632842       37.1888908926       33.9650975126  MEMB      106             0.0000000000
     14117       112  POPS      H7R            61.0516364585       37.4991640536       32.9033506644  MEMB      106             0.0000000000
     14118       112  POPS      H7S            62.2009163764       37.1341300180       34.1754041916  MEMB      106             0.0000000000
     14119       112  POPS      C28            60.4845452495       38.2996553998       34.8067532601  MEMB      106             0.0000000000
     14120       112  POPS      H8R            61.0363522151       39.2453763284       34.6303234106  MEMB      106             0.0000000000
     14121       112  POPS      H8S            60.6811254959       38.0416540231       35.8694804827  MEMB      106             0.0000000000
     14122       112  POPS      C29            59.0167633976       38.4841470203       34.5023600369  MEMB      106             0.0000000000
     14123       112  POPS      H91            58.7740927394       38.9498642953       33.5354513984  MEMB      106             0.0000000000
     14124       112  POPS      C210           58.0340040512       38.1397525148       35.3453720775  MEMB      106             0.0000000000
     14125       112  POPS      H101           56.9783843947       38.3050831407       35.0786469611  MEMB      106             0.0000000000
     14126       112  POPS      C211           58.3293412204       37.5294214348       36.6830154423  MEMB      106             0.0000000000
     14127       112  POPS      H11R           59.1223530350       36.7533282002       36.5863954101  MEMB      106             0.0000000000
     14128       112  POPS      H11S           57.4734731181       36.9842971374       37.0876778127  MEMB      106             0.0000000000
     14129       112  POPS      C212           58.7558523755       38.5595991908       37.7336137313  MEMB      106             0.0000000000
     14130       112  POPS      H12R           57.9161536387       39.2437869646       37.9742288069  MEMB      106             0.0000000000
     14131       112  POPS      H12S           59.5986949919       39.1765600570       37.3465375052  MEMB      106             0.0000000000
     14132       112  POPS      C213           59.2222856247       37.8228656071       38.9802852174  MEMB      106             0.0000000000
     14133       112  POPS      H13R           59.8160724771       36.9404128529       38.6433030606  MEMB      106             0.0000000000
     14134       112  POPS      H13S           58.3478541051       37.4339887866       39.5469104221  MEMB      106             0.0000000000
     14135       112  POPS      C214           60.1294408729       38.6444585720       39.8903161894  MEMB      106             0.0000000000
     14136       112  POPS      H14R           59.5607750781       39.4741898023       40.3552985169  MEMB      106             0.0000000000
     14137       112  POPS      H14S           60.9769885283       39.0639292548       39.3017355485  MEMB      106             0.0000000000
     14138       112  POPS      C215           60.6325206525       37.7324993830       40.9976281546  MEMB      106             0.0000000000
     14139       112  POPS      H15R           60.8500588859       36.7416658721       40.5337768810  MEMB      106             0.0000000000
     14140       112  POPS      H15S           59.7949730359       37.5990134494       41.7184687301  MEMB      106             0.0000000000
     14141       112  POPS      C216           61.8995121318       38.1887344165       41.7204260698  MEMB      106             0.0000000000
     14142       112  POPS      H16R           61.8523811561       39.2731015547       41.9648131526  MEMB      106             0.0000000000
     14143       112  POPS      H16S           62.7712102844       38.0405356707       41.0398966093  MEMB      106             0.0000000000
     14144       112  POPS      C217           62.1198390068       37.3816816266       43.0089813910  MEMB      106             0.0000000000
     14145       112  POPS      H17R           61.7555998823       37.9623524001       43.8849230438  MEMB      106             0.0000000000
     14146       112  POPS      H17S           63.2106655357       37.2349270851       43.1504571991  MEMB      106             0.0000000000
     14147       112  POPS      C218           61.4472398565       36.0105868929       43.0261864259  MEMB      106             0.0000000000
     14148       112  POPS      H18R           60.3635266330       36.1222188186       43.2320398218  MEMB      106             0.0000000000
     14149       112  POPS      H18S           61.8976928145       35.3665430121       43.8045808815  MEMB      106             0.0000000000
     14150       112  POPS      H18T           61.5559035896       35.4817803294       42.0591070288  MEMB      106             0.0000000000
     14151       112  POPS      C33            65.5049910888       34.8797246886       31.4740394239  MEMB      106             0.0000000000
     14152       112  POPS      H3X            66.4121636841       35.2606101374       30.9904813594  MEMB      106             0.0000000000
     14153       112  POPS      H3Y            65.8898590720       34.1736541889       32.2331034513  MEMB      106             0.0000000000
     14154       112  POPS      C34            64.7748675235       36.0341402286       32.1763522881  MEMB      106             0.0000000000
     14155       112  POPS      H4X            64.0672411041       35.6038043106       32.9140861130  MEMB      106             0.0000000000
     14156       112  POPS      H4Y            64.1742003995       36.6299332611       31.4544847365  MEMB      106             0.0000000000
     14157       112  POPS      C35            65.7573191044       37.0042516079       32.8499209096  MEMB      106             0.0000000000
     14158       112  POPS      H5X            66.2600777634       37.6026681824       32.0560322652  MEMB      106             0.0000000000
     14159       112  POPS      H5Y            66.5487274915       36.4347357902       33.3846530479  MEMB      106             0.0000000000
     14160       112  POPS      C36            65.0982022859       37.9737119073       33.8403058212  MEMB      106             0.0000000000
     14161       112  POPS      H6X            64.2675469770       38.5199896377       33.3432310053  MEMB      106             0.0000000000
     14162       112  POPS      H6Y            65.8870320274       38.6997263117       34.1209381864  MEMB      106             0.0000000000
     14163       112  POPS      C37            64.6182050540       37.2749330299       35.1177460089  MEMB      106             0.0000000000
     14164       112  POPS      H7X            65.5082349466       36.8637653455       35.6442878303  MEMB      106             0.0000000000
     14165       112  POPS      H7Y            63.9809063394       36.4144128344       34.8338368030  MEMB      106             0.0000000000
     14166       112  POPS      C38            63.8333897596       38.1305340727       36.1161691247  MEMB      106             0.0000000000
     14167       112  POPS      H8X            62.8639497872       38.4537687237       35.7003850780  MEMB      106             0.0000000000
     14168       112  POPS      H8Y            64.3874794544       39.0678322961       36.2944142260  MEMB      106             0.0000000000
     14169       112  POPS      C39            63.6070570592       37.3612731865       37.4314830931  MEMB      106             0.0000000000
     14170       112  POPS      H9X            63.1622946421       38.0392093930       38.1939933574  MEMB      106             0.0000000000
     14171       112  POPS      H9Y            64.5953076305       37.0173553395       37.8139356385  MEMB      106             0.0000000000
     14172       112  POPS      C310           62.7092173857       36.1233156627       37.2841062987  MEMB      106             0.0000000000
     14173       112  POPS      H10X           63.0391502691       35.4863240071       36.4359106309  MEMB      106             0.0000000000
     14174       112  POPS      H10Y           61.6756408891       36.4684463091       37.0672555064  MEMB      106             0.0000000000
     14175       112  POPS      C311           62.6957180265       35.2541094009       38.5454424340  MEMB      106             0.0000000000
     14176       112  POPS      H11X           62.6265521239       35.9305519280       39.4261112639  MEMB      106             0.0000000000
     14177       112  POPS      H11Y           63.6588341517       34.7078571109       38.6326102715  MEMB      106             0.0000000000
     14178       112  POPS      C312           61.5047889143       34.2843748335       38.5909808434  MEMB      106             0.0000000000
     14179       112  POPS      H12X           60.5873403407       34.8327022011       38.2828909893  MEMB      106             0.0000000000
     14180       112  POPS      H12Y           61.3560487766       33.9746415667       39.6487462933  MEMB      106             0.0000000000
     14181       112  POPS      C313           61.6578666123       33.0223740190       37.7257707450  MEMB      106             0.0000000000
     14182       112  POPS      H13X           61.7912251636       33.3070703443       36.6590332783  MEMB      106             0.0000000000
     14183       112  POPS      H13Y           60.7159622283       32.4289056799       37.7963531364  MEMB      106             0.0000000000
     14184       112  POPS      C314           62.8128459817       32.1092315658       38.1636838668  MEMB      106             0.0000000000
     14185       112  POPS      H14X           63.7812997980       32.6383043725       38.0360198034  MEMB      106             0.0000000000
     14186       112  POPS      H14Y           62.8407091940       31.2182569469       37.4969963800  MEMB      106             0.0000000000
     14187       112  POPS      C315           62.6846353106       31.6467910422       39.6212539372  MEMB      106             0.0000000000
     14188       112  POPS      H15X           61.6303999950       31.3361482932       39.8064925050  MEMB      106             0.0000000000
     14189       112  POPS      H15Y           62.9026714092       32.5069707987       40.2968934700  MEMB      106             0.0000000000
     14190       112  POPS      C316           63.6127923817       30.4853878786       39.9713163146  MEMB      106             0.0000000000
     14191       112  POPS      H16X           63.5869361265       30.2808389058       41.0632349005  MEMB      106             0.0000000000
     14192       112  POPS      H16Y           64.6563724472       30.7212472723       39.6742140307  MEMB      106             0.0000000000
     14193       112  POPS      H16Z           63.2944857767       29.5674091464       39.4310419353  MEMB      106             0.0000000000
     14194       113  POPC      N              43.1952310413       62.3510874035       23.4179162356  MEMB      107             0.0000000000
     14195       113  POPC      C12            44.2195752263       61.7938384297       24.4059004800  MEMB      107             0.0000000000
     14196       113  POPC      H12A           44.2341672568       62.3689783595       25.3278795805  MEMB      107             0.0000000000
     14197       113  POPC      H12B           45.2238498995       61.8959215500       23.9829864891  MEMB      107             0.0000000000
     14198       113  POPC      C13            43.7089837667       62.1288708439       22.0338853683  MEMB      107             0.0000000000
     14199       113  POPC      H13A           42.9626770661       62.3563381702       21.2871322105  MEMB      107             0.0000000000
     14200       113  POPC      H13B           44.5954288687       62.7240269711       21.8056857304  MEMB      107             0.0000000000
     14201       113  POPC      H13C           43.9820053288       61.0825641449       21.9180927244  MEMB      107             0.0000000000
     14202       113  POPC      C14            41.9049553059       61.6059001105       23.5732786450  MEMB      107             0.0000000000
     14203       113  POPC      H14A           42.1249330695       60.5405370358       23.4350410668  MEMB      107             0.0000000000
     14204       113  POPC      H14B           41.5337900868       61.7167757794       24.5891416445  MEMB      107             0.0000000000
     14205       113  POPC      H14C           41.1719769051       61.9401470103       22.8570585852  MEMB      107             0.0000000000
     14206       113  POPC      C15            42.9970058219       63.8116411250       23.6198031236  MEMB      107             0.0000000000
     14207       113  POPC      H15A           42.6383620331       64.0258185339       24.6116665266  MEMB      107             0.0000000000
     14208       113  POPC      H15B           42.3614383432       64.2554932257       22.8663213966  MEMB      107             0.0000000000
     14209       113  POPC      H15C           43.9520748439       64.3440719480       23.5110872013  MEMB      107             0.0000000000
     14210       113  POPC      C11            44.0524962713       60.2898037262       24.7474551461  MEMB      107             0.0000000000
     14211       113  POPC      H11A           43.0855717523       60.1368239697       25.2728576502  MEMB      107             0.0000000000
     14212       113  POPC      H11B           44.8141740383       59.9863156989       25.5040967509  MEMB      107             0.0000000000
     14213       113  POPC      P              45.5402611148       59.1685180577       22.9651797595  MEMB      107             0.0000000000
     14214       113  POPC      O13            46.4230057479       60.3374256970       23.1396181542  MEMB      107             0.0000000000
     14215       113  POPC      O14            45.3849682728       58.6707485993       21.5810946242  MEMB      107             0.0000000000
     14216       113  POPC      O12            44.1032827543       59.4824577315       23.5551636022  MEMB      107             0.0000000000
     14217       113  POPC      O11            46.0399987377       57.9846754214       23.8874524725  MEMB      107             0.0000000000
     14218       113  POPC      C1             47.3711551804       58.0256964858       24.3948895400  MEMB      107             0.0000000000
     14219       113  POPC      HA             48.0248756777       58.6933892485       23.8076552695  MEMB      107             0.0000000000
     14220       113  POPC      HB             47.8200563341       57.0136241713       24.3006629418  MEMB      107             0.0000000000
     14221       113  POPC      C2             47.4509235702       58.4195907717       25.8924344512  MEMB      107             0.0000000000
     14222       113  POPC      HS             48.3673816122       57.9931054502       26.3378827899  MEMB      107             0.0000000000
     14223       113  POPC      O21            46.2819953426       57.9636450343       26.5867596942  MEMB      107             0.0000000000
     14224       113  POPC      C21            46.3718903759       56.6872311721       26.8874480139  MEMB      107             0.0000000000
     14225       113  POPC      O22            47.2278787361       55.8931918736       26.5267549525  MEMB      107             0.0000000000
     14226       113  POPC      C22            45.3860609876       56.4320375525       27.9846698522  MEMB      107             0.0000000000
     14227       113  POPC      H2R            45.1642540382       55.3506175481       28.0149144414  MEMB      107             0.0000000000
     14228       113  POPC      H2S            44.4543943621       56.9972202782       27.7837140586  MEMB      107             0.0000000000
     14229       113  POPC      C3             47.6304219060       59.9372582389       26.1461338757  MEMB      107             0.0000000000
     14230       113  POPC      HX             46.7212706776       60.5233205108       25.9080815666  MEMB      107             0.0000000000
     14231       113  POPC      HY             48.4059156136       60.2788989954       25.4268513225  MEMB      107             0.0000000000
     14232       113  POPC      O31            48.1303434162       60.1319067781       27.4911083531  MEMB      107             0.0000000000
     14233       113  POPC      C31            47.2549984729       60.5582644762       28.3827749562  MEMB      107             0.0000000000
     14234       113  POPC      O32            46.0817245933       60.8149025067       28.1748687218  MEMB      107             0.0000000000
     14235       113  POPC      C32            47.9266720188       60.6010693863       29.7746993294  MEMB      107             0.0000000000
     14236       113  POPC      H2X            48.8872536906       61.1389487725       29.6535849353  MEMB      107             0.0000000000
     14237       113  POPC      H2Y            48.1306876825       59.5475158806       30.0555401464  MEMB      107             0.0000000000
     14238       113  POPC      C23            46.0508495868       56.9678458696       29.2645436408  MEMB      107             0.0000000000
     14239       113  POPC      H3R            46.1201554282       58.0787095308       29.1666304000  MEMB      107             0.0000000000
     14240       113  POPC      H3S            47.0841808715       56.5735144885       29.4030656201  MEMB      107             0.0000000000
     14241       113  POPC      C24            45.2254093335       56.6604063162       30.4947468138  MEMB      107             0.0000000000
     14242       113  POPC      H4R            45.3637928750       55.6168070505       30.8344857039  MEMB      107             0.0000000000
     14243       113  POPC      H4S            44.1633731253       56.7937741019       30.2124224701  MEMB      107             0.0000000000
     14244       113  POPC      C25            45.5205685017       57.6062253125       31.6427381115  MEMB      107             0.0000000000
     14245       113  POPC      H5R            45.6465834953       58.6356693824       31.2394714115  MEMB      107             0.0000000000
     14246       113  POPC      H5S            46.4700387119       57.3148973722       32.1429744760  MEMB      107             0.0000000000
     14247       113  POPC      C26            44.3481945310       57.5986986767       32.6148828478  MEMB      107             0.0000000000
     14248       113  POPC      H6R            44.2922884986       56.6063279793       33.1078227471  MEMB      107             0.0000000000
     14249       113  POPC      H6S            43.4205250769       57.7659739177       32.0480171507  MEMB      107             0.0000000000
     14250       113  POPC      C27            44.4407085128       58.6962051813       33.6558663205  MEMB      107             0.0000000000
     14251       113  POPC      H7R            44.5522771645       59.6932038676       33.1716216283  MEMB      107             0.0000000000
     14252       113  POPC      H7S            45.3867260151       58.4705225566       34.1760115684  MEMB      107             0.0000000000
     14253       113  POPC      C28            43.2748620526       58.7070391488       34.6420857088  MEMB      107             0.0000000000
     14254       113  POPC      H8R            43.6091465794       59.2652239128       35.5427561915  MEMB      107             0.0000000000
     14255       113  POPC      H8S            43.0772261223       57.6748077863       34.9833906861  MEMB      107             0.0000000000
     14256       113  POPC      C29            42.0455482305       59.3064305553       34.0067444954  MEMB      107             0.0000000000
     14257       113  POPC      H91            41.6435610582       58.7668429455       33.1354818060  MEMB      107             0.0000000000
     14258       113  POPC      C210           41.4037822607       60.3964465735       34.4525650957  MEMB      107             0.0000000000
     14259       113  POPC      H101           40.4780968869       60.7289638192       33.9568459999  MEMB      107             0.0000000000
     14260       113  POPC      C211           41.8093677920       61.1907988840       35.6646955908  MEMB      107             0.0000000000
     14261       113  POPC      H11R           41.5550252558       62.2641427473       35.5434521555  MEMB      107             0.0000000000
     14262       113  POPC      H11S           42.9016507154       61.1472234239       35.8710338174  MEMB      107             0.0000000000
     14263       113  POPC      C212           41.0464582538       60.6141548514       36.8583458573  MEMB      107             0.0000000000
     14264       113  POPC      H12R           41.2860575962       59.5366812924       37.0086250969  MEMB      107             0.0000000000
     14265       113  POPC      H12S           39.9513079777       60.6933316166       36.6571417772  MEMB      107             0.0000000000
     14266       113  POPC      C213           41.3271004235       61.3630637025       38.1524156662  MEMB      107             0.0000000000
     14267       113  POPC      H13R           41.2024196667       62.4501408716       37.9370888327  MEMB      107             0.0000000000
     14268       113  POPC      H13S           42.3704838901       61.2001439458       38.4983778242  MEMB      107             0.0000000000
     14269       113  POPC      C214           40.3049160335       60.9842925753       39.2226115996  MEMB      107             0.0000000000
     14270       113  POPC      H14R           39.4713848535       60.3882232174       38.7857342750  MEMB      107             0.0000000000
     14271       113  POPC      H14S           39.8565800876       61.9356466312       39.5741508433  MEMB      107             0.0000000000
     14272       113  POPC      C215           40.8561121300       60.2531620479       40.4455684086  MEMB      107             0.0000000000
     14273       113  POPC      H15R           41.9244296841       60.4631989494       40.6376744331  MEMB      107             0.0000000000
     14274       113  POPC      H15S           40.8003086464       59.1629109111       40.2746161302  MEMB      107             0.0000000000
     14275       113  POPC      C216           40.0035406978       60.5943355018       41.6678934320  MEMB      107             0.0000000000
     14276       113  POPC      H16R           39.6230040270       59.6619677201       42.0753523482  MEMB      107             0.0000000000
     14277       113  POPC      H16S           39.1090227804       61.1747094037       41.3504382740  MEMB      107             0.0000000000
     14278       113  POPC      C217           40.7103127767       61.3379743773       42.7989366813  MEMB      107             0.0000000000
     14279       113  POPC      H17R           39.9042227608       61.7376480972       43.4517222108  MEMB      107             0.0000000000
     14280       113  POPC      H17S           41.2626373938       62.1918030554       42.3590934472  MEMB      107             0.0000000000
     14281       113  POPC      C218           41.6419716443       60.5089842296       43.6787254306  MEMB      107             0.0000000000
     14282       113  POPC      H18R           42.2875676052       59.8624962920       43.0474013614  MEMB      107             0.0000000000
     14283       113  POPC      H18S           41.0718687571       59.8745590389       44.3900901982  MEMB      107             0.0000000000
     14284       113  POPC      H18T           42.2967112561       61.1789665079       44.2801297488  MEMB      107             0.0000000000
     14285       113  POPC      C33            47.0719417220       61.2876723177       30.8806701569  MEMB      107             0.0000000000
     14286       113  POPC      H3X            46.0671344128       60.8105707334       30.9183140355  MEMB      107             0.0000000000
     14287       113  POPC      H3Y            46.9162613127       62.3472367912       30.5758883006  MEMB      107             0.0000000000
     14288       113  POPC      C34            47.6787878147       61.2759096727       32.3126082901  MEMB      107             0.0000000000
     14289       113  POPC      H4X            47.0425831789       61.9312727975       32.9513807987  MEMB      107             0.0000000000
     14290       113  POPC      H4Y            48.6956409911       61.7197125952       32.2761692176  MEMB      107             0.0000000000
     14291       113  POPC      C35            47.7278653923       59.8793439198       32.9723144660  MEMB      107             0.0000000000
     14292       113  POPC      H5X            48.3404602479       59.2047951307       32.3324144986  MEMB      107             0.0000000000
     14293       113  POPC      H5Y            46.7028364998       59.4862658136       32.9533911789  MEMB      107             0.0000000000
     14294       113  POPC      C36            48.2430817700       59.7694386320       34.4328583972  MEMB      107             0.0000000000
     14295       113  POPC      H6X            49.2433062953       60.2477847977       34.4754941937  MEMB      107             0.0000000000
     14296       113  POPC      H6Y            48.3866050402       58.6927303216       34.6724589694  MEMB      107             0.0000000000
     14297       113  POPC      C37            47.3571295832       60.3970634649       35.5342027143  MEMB      107             0.0000000000
     14298       113  POPC      H7X            46.5988647784       61.0495512615       35.0455634979  MEMB      107             0.0000000000
     14299       113  POPC      H7Y            48.0015297192       61.0561137754       36.1554967339  MEMB      107             0.0000000000
     14300       113  POPC      C38            46.6147670373       59.4302459100       36.4936385114  MEMB      107             0.0000000000
     14301       113  POPC      H8X            45.9632800607       58.7508020270       35.9258657429  MEMB      107             0.0000000000
     14302       113  POPC      H8Y            45.9100833651       60.0291361574       37.1098869274  MEMB      107             0.0000000000
     14303       113  POPC      C39            47.4480109762       58.5020367792       37.4029641027  MEMB      107             0.0000000000
     14304       113  POPC      H9X            48.2174735557       57.9700943697       36.8012914705  MEMB      107             0.0000000000
     14305       113  POPC      H9Y            46.7629933292       57.7121081122       37.7895397995  MEMB      107             0.0000000000
     14306       113  POPC      C310           48.1109962318       59.1391108908       38.6354017116  MEMB      107             0.0000000000
     14307       113  POPC      H10X           49.1282904129       59.4693927770       38.3152500029  MEMB      107             0.0000000000
     14308       113  POPC      H10Y           48.2377685981       58.3691311718       39.4247868535  MEMB      107             0.0000000000
     14309       113  POPC      C311           47.4251933931       60.3682764170       39.2433619282  MEMB      107             0.0000000000
     14310       113  POPC      H11X           47.2085366371       61.0354828898       38.4017119494  MEMB      107             0.0000000000
     14311       113  POPC      H11Y           48.1629605893       60.8771830649       39.9033258038  MEMB      107             0.0000000000
     14312       113  POPC      C312           46.1171525317       60.2082695981       40.0348522437  MEMB      107             0.0000000000
     14313       113  POPC      H12X           45.2828367010       59.9300031180       39.3589965181  MEMB      107             0.0000000000
     14314       113  POPC      H12Y           45.8893773949       61.2131674291       40.4542867083  MEMB      107             0.0000000000
     14315       113  POPC      C313           46.2275407769       59.2238700638       41.1975655523  MEMB      107             0.0000000000
     14316       113  POPC      H13X           47.2152879969       59.3902498725       41.6758382675  MEMB      107             0.0000000000
     14317       113  POPC      H13Y           46.2261438301       58.2129297519       40.7516355408  MEMB      107             0.0000000000
     14318       113  POPC      C314           45.1379764194       59.3186248420       42.2812457426  MEMB      107             0.0000000000
     14319       113  POPC      H14X           44.3233939879       58.6017597118       42.0735547180  MEMB      107             0.0000000000
     14320       113  POPC      H14Y           44.6912087276       60.3278272126       42.2593598865  MEMB      107             0.0000000000
     14321       113  POPC      C315           45.6501718936       59.0362954866       43.7002568636  MEMB      107             0.0000000000
     14322       113  POPC      H15X           46.2936973102       59.8944702054       43.9905311769  MEMB      107             0.0000000000
     14323       113  POPC      H15Y           46.2863067279       58.1231384738       43.6863520891  MEMB      107             0.0000000000
     14324       113  POPC      C316           44.5550014772       58.8622200792       44.7588086262  MEMB      107             0.0000000000
     14325       113  POPC      H16X           44.6333467122       57.8860672003       45.2774463101  MEMB      107             0.0000000000
     14326       113  POPC      H16Y           43.5476899126       58.9216038524       44.3129056535  MEMB      107             0.0000000000
     14327       113  POPC      H16Z           44.6410768216       59.6560845815       45.5206550261  MEMB      107             0.0000000000
     14328       114  POPC      N              56.3322695719       15.5430782770       24.0971675568  MEMB      108             0.0000000000
     14329       114  POPC      C12            55.4105247223       14.3283008136       24.0468429597  MEMB      108             0.0000000000
     14330       114  POPC      H12A           54.5008257029       14.6192956730       23.5365592979  MEMB      108             0.0000000000
     14331       114  POPC      H12B           55.1220564945       14.0519962775       25.0512697715  MEMB      108             0.0000000000
     14332       114  POPC      C13            56.9077719491       15.8129830502       22.7433991149  MEMB      108             0.0000000000
     14333       114  POPC      H13A           57.5919243344       14.9959725212       22.5158389433  MEMB      108             0.0000000000
     14334       114  POPC      H13B           56.1546259836       15.8579032794       21.9654224072  MEMB      108             0.0000000000
     14335       114  POPC      H13C           57.4868737032       16.7293703084       22.7495101661  MEMB      108             0.0000000000
     14336       114  POPC      C14            55.6227875694       16.7560586233       24.5894641196  MEMB      108             0.0000000000
     14337       114  POPC      H14A           55.1421994719       16.6075239940       25.5482146742  MEMB      108             0.0000000000
     14338       114  POPC      H14B           56.2922346669       17.6100586550       24.7384710382  MEMB      108             0.0000000000
     14339       114  POPC      H14C           54.8742971933       17.0952224625       23.8868111169  MEMB      108             0.0000000000
     14340       114  POPC      C15            57.5155822815       15.2643965457       24.9789901668  MEMB      108             0.0000000000
     14341       114  POPC      H15A           58.0521362014       14.4047057777       24.5663022106  MEMB      108             0.0000000000
     14342       114  POPC      H15B           57.2420139633       15.0157272272       25.9890648424  MEMB      108             0.0000000000
     14343       114  POPC      H15C           58.2185877998       16.0920607135       25.0032779973  MEMB      108             0.0000000000
     14344       114  POPC      C11            55.8891890792       13.0292747621       23.3350121842  MEMB      108             0.0000000000
     14345       114  POPC      H11A           55.8425573118       13.2304196001       22.2358003953  MEMB      108             0.0000000000
     14346       114  POPC      H11B           55.1397158226       12.2284623054       23.5689444472  MEMB      108             0.0000000000
     14347       114  POPC      P              57.7284170870       11.2837496383       22.9774870585  MEMB      108             0.0000000000
     14348       114  POPC      O13            59.1990253458       11.1795366263       23.0120958951  MEMB      108             0.0000000000
     14349       114  POPC      O14            57.1543350053       11.2520097967       21.6159205766  MEMB      108             0.0000000000
     14350       114  POPC      O12            57.2029130649       12.6019804787       23.7281176977  MEMB      108             0.0000000000
     14351       114  POPC      O11            57.0932007103       10.0844713735       23.7937877677  MEMB      108             0.0000000000
     14352       114  POPC      C1             57.6720708965        9.4886791366       24.9310601067  MEMB      108             0.0000000000
     14353       114  POPC      HA             58.6058704627       10.0052950026       25.2514336044  MEMB      108             0.0000000000
     14354       114  POPC      HB             57.9381562566        8.4372895509       24.6791620097  MEMB      108             0.0000000000
     14355       114  POPC      C2             56.6591409396        9.4899364585       26.1016361361  MEMB      108             0.0000000000
     14356       114  POPC      HS             55.8240663538        8.8118594573       25.8024475636  MEMB      108             0.0000000000
     14357       114  POPC      O21            56.1669267074       10.8262142910       26.3130970426  MEMB      108             0.0000000000
     14358       114  POPC      C21            55.0827927052       10.9173147633       27.0526130874  MEMB      108             0.0000000000
     14359       114  POPC      O22            54.5146281542       10.0091705473       27.6334001757  MEMB      108             0.0000000000
     14360       114  POPC      C22            54.7501038631       12.4140646896       27.2031251257  MEMB      108             0.0000000000
     14361       114  POPC      H2R            54.0280500224       12.6436785833       26.3931666531  MEMB      108             0.0000000000
     14362       114  POPC      H2S            55.6795092418       12.9929124993       27.0281532093  MEMB      108             0.0000000000
     14363       114  POPC      C3             57.3569290646        8.9607827421       27.3777596444  MEMB      108             0.0000000000
     14364       114  POPC      HX             57.9136186236        8.0389140119       27.1048672027  MEMB      108             0.0000000000
     14365       114  POPC      HY             56.5811105519        8.6680448580       28.1241455083  MEMB      108             0.0000000000
     14366       114  POPC      O31            58.2898274188        9.9704124140       27.8348315381  MEMB      108             0.0000000000
     14367       114  POPC      C31            57.9626236172       10.5542914334       28.9773747483  MEMB      108             0.0000000000
     14368       114  POPC      O32            57.2552972304       10.0658698606       29.8371810083  MEMB      108             0.0000000000
     14369       114  POPC      C32            58.5636733282       11.9603632378       29.0238291371  MEMB      108             0.0000000000
     14370       114  POPC      H2X            57.8380581597       12.6511090552       28.5513198052  MEMB      108             0.0000000000
     14371       114  POPC      H2Y            59.4812042276       11.9822878465       28.4093310789  MEMB      108             0.0000000000
     14372       114  POPC      C23            54.1351881160       12.8152068683       28.5760709827  MEMB      108             0.0000000000
     14373       114  POPC      H3R            53.2987081147       12.1282709646       28.8376740866  MEMB      108             0.0000000000
     14374       114  POPC      H3S            53.7023261207       13.8357912414       28.4631798323  MEMB      108             0.0000000000
     14375       114  POPC      C24            55.1663983191       12.8612976936       29.7252954419  MEMB      108             0.0000000000
     14376       114  POPC      H4R            56.0591751626       13.4380418176       29.4038782053  MEMB      108             0.0000000000
     14377       114  POPC      H4S            55.4768807405       11.8151918325       29.9500455026  MEMB      108             0.0000000000
     14378       114  POPC      C25            54.6564318571       13.4893244132       31.0386911427  MEMB      108             0.0000000000
     14379       114  POPC      H5R            53.6627122338       13.0605222881       31.2362729850  MEMB      108             0.0000000000
     14380       114  POPC      H5S            54.5346026164       14.5871933972       30.9300909555  MEMB      108             0.0000000000
     14381       114  POPC      C26            55.5394618127       13.1797058498       32.2632268419  MEMB      108             0.0000000000
     14382       114  POPC      H6R            56.5689765295       13.5206301817       32.0588608460  MEMB      108             0.0000000000
     14383       114  POPC      H6S            55.5687978787       12.0765776949       32.4085149358  MEMB      108             0.0000000000
     14384       114  POPC      C27            55.0846636929       13.8733475215       33.5625234578  MEMB      108             0.0000000000
     14385       114  POPC      H7R            54.0366387531       13.6029776602       33.7978942490  MEMB      108             0.0000000000
     14386       114  POPC      H7S            55.0986170261       14.9720752008       33.3828701729  MEMB      108             0.0000000000
     14387       114  POPC      C28            55.9850185906       13.5897811275       34.7905705162  MEMB      108             0.0000000000
     14388       114  POPC      H8R            55.5214928144       14.1053236557       35.6618222559  MEMB      108             0.0000000000
     14389       114  POPC      H8S            56.9480865659       14.1132917385       34.6063906102  MEMB      108             0.0000000000
     14390       114  POPC      C29            56.2646743600       12.1298082415       35.0873805842  MEMB      108             0.0000000000
     14391       114  POPC      H91            56.7388550414       11.5785233305       34.2611209772  MEMB      108             0.0000000000
     14392       114  POPC      C210           56.0171037154       11.4673832545       36.2351756220  MEMB      108             0.0000000000
     14393       114  POPC      H101           56.2643793290       10.3961575503       36.3071996235  MEMB      108             0.0000000000
     14394       114  POPC      C211           55.3991207333       12.0570105833       37.4759839622  MEMB      108             0.0000000000
     14395       114  POPC      H11R           55.6176812952       13.1441416617       37.5610316543  MEMB      108             0.0000000000
     14396       114  POPC      H11S           55.8138149620       11.5772819403       38.3890143310  MEMB      108             0.0000000000
     14397       114  POPC      C212           53.8759018067       11.8880409415       37.4486205924  MEMB      108             0.0000000000
     14398       114  POPC      H12R           53.6138315931       10.8153267289       37.5931037678  MEMB      108             0.0000000000
     14399       114  POPC      H12S           53.4895569678       12.2068988918       36.4522766549  MEMB      108             0.0000000000
     14400       114  POPC      C213           53.1540379539       12.7382372318       38.4982167311  MEMB      108             0.0000000000
     14401       114  POPC      H13R           52.0601949746       12.6452130191       38.3018084228  MEMB      108             0.0000000000
     14402       114  POPC      H13S           53.4262706045       13.8106566451       38.3899012688  MEMB      108             0.0000000000
     14403       114  POPC      C214           53.4186021928       12.2873924523       39.9359723770  MEMB      108             0.0000000000
     14404       114  POPC      H14R           54.4247904824       12.6019997178       40.2863114068  MEMB      108             0.0000000000
     14405       114  POPC      H14S           53.3922344852       11.1779414268       39.9330612465  MEMB      108             0.0000000000
     14406       114  POPC      C215           52.3236079266       12.8065481337       40.8696406857  MEMB      108             0.0000000000
     14407       114  POPC      H15R           51.3592264303       12.5189510736       40.4062718153  MEMB      108             0.0000000000
     14408       114  POPC      H15S           52.3544175033       13.9172444574       40.8846432534  MEMB      108             0.0000000000
     14409       114  POPC      C216           52.3683510849       12.2795275709       42.3141164170  MEMB      108             0.0000000000
     14410       114  POPC      H16R           51.4194560454       12.5613253869       42.8173991861  MEMB      108             0.0000000000
     14411       114  POPC      H16S           53.1936934857       12.8032323165       42.8395243536  MEMB      108             0.0000000000
     14412       114  POPC      C217           52.6260341165       10.7717778870       42.4833746630  MEMB      108             0.0000000000
     14413       114  POPC      H17R           52.4875287695       10.4950330724       43.5542401967  MEMB      108             0.0000000000
     14414       114  POPC      H17S           53.6894004184       10.6167991046       42.2370455031  MEMB      108             0.0000000000
     14415       114  POPC      C218           51.7990774008        9.8250809467       41.6201469832  MEMB      108             0.0000000000
     14416       114  POPC      H18R           50.7961151714        9.7797397740       42.0507130804  MEMB      108             0.0000000000
     14417       114  POPC      H18S           52.1589530037        8.7850361681       41.6161773958  MEMB      108             0.0000000000
     14418       114  POPC      H18T           51.7196450141       10.1594194833       40.5664823896  MEMB      108             0.0000000000
     14419       114  POPC      C33            58.8873559545       12.4220167335       30.4616303000  MEMB      108             0.0000000000
     14420       114  POPC      H3X            59.0201498573       11.5533841428       31.1457185522  MEMB      108             0.0000000000
     14421       114  POPC      H3Y            58.0221199653       13.0050331942       30.8276217271  MEMB      108             0.0000000000
     14422       114  POPC      C34            60.1581260599       13.2782417113       30.5390785490  MEMB      108             0.0000000000
     14423       114  POPC      H4X            60.0321253788       14.1716663445       29.8863625276  MEMB      108             0.0000000000
     14424       114  POPC      H4Y            60.9956952035       12.6724764284       30.1259109042  MEMB      108             0.0000000000
     14425       114  POPC      C35            60.5435185584       13.7210757770       31.9642344591  MEMB      108             0.0000000000
     14426       114  POPC      H5X            61.4062652930       14.4235798233       31.8925776449  MEMB      108             0.0000000000
     14427       114  POPC      H5Y            60.8753521565       12.8297167316       32.5416640018  MEMB      108             0.0000000000
     14428       114  POPC      C36            59.3994778834       14.4090807578       32.7256892919  MEMB      108             0.0000000000
     14429       114  POPC      H6X            58.5470751326       13.7077315806       32.8390204364  MEMB      108             0.0000000000
     14430       114  POPC      H6Y            59.0517235688       15.2691035443       32.1051850370  MEMB      108             0.0000000000
     14431       114  POPC      C37            59.7641513212       14.9459086700       34.1211938884  MEMB      108             0.0000000000
     14432       114  POPC      H7X            59.0010526168       15.7257762986       34.3571504848  MEMB      108             0.0000000000
     14433       114  POPC      H7Y            60.7575166740       15.4415458495       34.0941821620  MEMB      108             0.0000000000
     14434       114  POPC      C38            59.7224330617       13.9111979907       35.2651206197  MEMB      108             0.0000000000
     14435       114  POPC      H8X            60.6296700818       13.2739497958       35.2260252804  MEMB      108             0.0000000000
     14436       114  POPC      H8Y            58.8476843058       13.2464720400       35.1103887050  MEMB      108             0.0000000000
     14437       114  POPC      C39            59.5844438488       14.5654181205       36.6576972476  MEMB      108             0.0000000000
     14438       114  POPC      H9X            59.1152692460       15.5657971915       36.5269228491  MEMB      108             0.0000000000
     14439       114  POPC      H9Y            60.5894555358       14.7215520995       37.1018459769  MEMB      108             0.0000000000
     14440       114  POPC      C310           58.6750799053       13.8284756422       37.6555906939  MEMB      108             0.0000000000
     14441       114  POPC      H10X           59.1465234869       12.8711392193       37.9568039784  MEMB      108             0.0000000000
     14442       114  POPC      H10Y           57.7202350479       13.5944446478       37.1427350613  MEMB      108             0.0000000000
     14443       114  POPC      C311           58.3530060039       14.6950151060       38.8880043938  MEMB      108             0.0000000000
     14444       114  POPC      H11X           57.8789629766       15.6400488738       38.5344401068  MEMB      108             0.0000000000
     14445       114  POPC      H11Y           59.3038820122       14.9747404191       39.3927303905  MEMB      108             0.0000000000
     14446       114  POPC      C312           57.3968179218       14.0632231156       39.9181325695  MEMB      108             0.0000000000
     14447       114  POPC      H12X           56.3802718740       13.9691763152       39.4750061313  MEMB      108             0.0000000000
     14448       114  POPC      H12Y           57.3049656570       14.7687629950       40.7764725198  MEMB      108             0.0000000000
     14449       114  POPC      C313           57.8056823276       12.6877249110       40.4805661642  MEMB      108             0.0000000000
     14450       114  POPC      H13X           57.5865216302       11.8919227388       39.7373605793  MEMB      108             0.0000000000
     14451       114  POPC      H13Y           57.1733099472       12.5262471888       41.3772657355  MEMB      108             0.0000000000
     14452       114  POPC      C314           59.2711022994       12.5786720743       40.9077429496  MEMB      108             0.0000000000
     14453       114  POPC      H14X           59.4980087412       13.4513055523       41.5546372215  MEMB      108             0.0000000000
     14454       114  POPC      H14Y           59.8958017149       12.6525600861       39.9987430061  MEMB      108             0.0000000000
     14455       114  POPC      C315           59.6870433458       11.2967017809       41.6481902734  MEMB      108             0.0000000000
     14456       114  POPC      H15X           59.0304418505       11.1214685695       42.5235466626  MEMB      108             0.0000000000
     14457       114  POPC      H15Y           60.6908826636       11.4716172701       42.0828042892  MEMB      108             0.0000000000
     14458       114  POPC      C316           59.7854969355       10.0499742881       40.7652008171  MEMB      108             0.0000000000
     14459       114  POPC      H16X           59.9986548225        9.1582638968       41.3920669730  MEMB      108             0.0000000000
     14460       114  POPC      H16Y           60.6141822064       10.1650851172       40.0341236263  MEMB      108             0.0000000000
     14461       114  POPC      H16Z           58.8440642321        9.8762821330       40.2092027186  MEMB      108             0.0000000000
     14462       115  POPC      N              52.7538443271       55.2428224390       22.1132420606  MEMB      109             0.0000000000
     14463       115  POPC      C12            51.3219160929       54.9782879701       22.5440448945  MEMB      109             0.0000000000
     14464       115  POPC      H12A           51.3672450075       54.2751747067       23.3705182000  MEMB      109             0.0000000000
     14465       115  POPC      H12B           50.7787050447       54.5194477702       21.7283888770  MEMB      109             0.0000000000
     14466       115  POPC      C13            53.6057456191       55.3869942983       23.3453567120  MEMB      109             0.0000000000
     14467       115  POPC      H13A           53.1655170730       56.1123485738       24.0276065964  MEMB      109             0.0000000000
     14468       115  POPC      H13B           53.6565324288       54.4399648690       23.8823671712  MEMB      109             0.0000000000
     14469       115  POPC      H13C           54.6244794294       55.6646295800       23.1125451489  MEMB      109             0.0000000000
     14470       115  POPC      C14            53.2870059916       54.1075324802       21.3202745672  MEMB      109             0.0000000000
     14471       115  POPC      H14A           52.6298471089       53.8548865164       20.4995185857  MEMB      109             0.0000000000
     14472       115  POPC      H14B           54.2785215227       54.3449273480       20.9472145392  MEMB      109             0.0000000000
     14473       115  POPC      H14C           53.4141177778       53.2270783531       21.9540883528  MEMB      109             0.0000000000
     14474       115  POPC      C15            52.7767275071       56.5066991244       21.3079982655  MEMB      109             0.0000000000
     14475       115  POPC      H15A           52.4370487340       57.3151395053       21.9634901715  MEMB      109             0.0000000000
     14476       115  POPC      H15B           52.1087092493       56.4192955989       20.4614080640  MEMB      109             0.0000000000
     14477       115  POPC      H15C           53.7692892747       56.7587262608       20.9808321721  MEMB      109             0.0000000000
     14478       115  POPC      C11            50.4883067690       56.1937582527       23.0155763979  MEMB      109             0.0000000000
     14479       115  POPC      H11A           49.5167042541       55.8170918229       23.4092862914  MEMB      109             0.0000000000
     14480       115  POPC      H11B           50.2524136894       56.8759346180       22.1682852185  MEMB      109             0.0000000000
     14481       115  POPC      P              51.3419137530       58.3814958274       24.2874053047  MEMB      109             0.0000000000
     14482       115  POPC      O13            50.1477120331       59.1634183221       23.9337674959  MEMB      109             0.0000000000
     14483       115  POPC      O14            52.5884237807       58.7548391764       23.5981487651  MEMB      109             0.0000000000
     14484       115  POPC      O12            51.1722219977       56.8418994444       24.0460598881  MEMB      109             0.0000000000
     14485       115  POPC      O11            51.5416512826       58.3361041762       25.8659018852  MEMB      109             0.0000000000
     14486       115  POPC      C1             50.9893909252       57.1971783601       26.5573967273  MEMB      109             0.0000000000
     14487       115  POPC      HA             51.5231733340       56.2643705427       26.2501882144  MEMB      109             0.0000000000
     14488       115  POPC      HB             49.9352609855       57.0158120762       26.2918244139  MEMB      109             0.0000000000
     14489       115  POPC      C2             51.1413113035       57.2775034835       28.1015734105  MEMB      109             0.0000000000
     14490       115  POPC      HS             50.4557929979       56.5284759454       28.5622977906  MEMB      109             0.0000000000
     14491       115  POPC      O21            50.8909404858       58.5985405775       28.6307959849  MEMB      109             0.0000000000
     14492       115  POPC      C21            50.7868945272       58.6556722151       29.9552930786  MEMB      109             0.0000000000
     14493       115  POPC      O22            50.3853462935       57.7626796170       30.6832867379  MEMB      109             0.0000000000
     14494       115  POPC      C22            51.4363916911       59.9545033559       30.4168328310  MEMB      109             0.0000000000
     14495       115  POPC      H2R            50.9417970227       60.8151536267       29.9296793071  MEMB      109             0.0000000000
     14496       115  POPC      H2S            52.4890755583       59.9331703803       30.0600888284  MEMB      109             0.0000000000
     14497       115  POPC      C3             52.6150657935       56.8608633868       28.3374273629  MEMB      109             0.0000000000
     14498       115  POPC      HX             53.2190689450       57.3960992510       27.5736428032  MEMB      109             0.0000000000
     14499       115  POPC      HY             52.6951099509       55.7756558858       28.1050220979  MEMB      109             0.0000000000
     14500       115  POPC      O31            53.1077914898       57.2423644318       29.6251711037  MEMB      109             0.0000000000
     14501       115  POPC      C31            53.3983970145       56.2589655166       30.4516523695  MEMB      109             0.0000000000
     14502       115  POPC      O32            53.4214050273       55.0725413872       30.1762139652  MEMB      109             0.0000000000
     14503       115  POPC      C32            53.7862725880       56.8766568468       31.7925099431  MEMB      109             0.0000000000
     14504       115  POPC      H2X            53.6226509948       57.9711415446       31.7464277094  MEMB      109             0.0000000000
     14505       115  POPC      H2Y            54.8666803484       56.6708696776       31.9201433051  MEMB      109             0.0000000000
     14506       115  POPC      C23            51.4036821958       60.0617418990       31.9458442954  MEMB      109             0.0000000000
     14507       115  POPC      H3R            51.8295999678       59.1382249740       32.3987650561  MEMB      109             0.0000000000
     14508       115  POPC      H3S            50.3450057477       60.1425773632       32.2717000621  MEMB      109             0.0000000000
     14509       115  POPC      C24            52.1734856199       61.2701466896       32.4709668303  MEMB      109             0.0000000000
     14510       115  POPC      H4R            51.8097590851       62.1779255807       31.9381955269  MEMB      109             0.0000000000
     14511       115  POPC      H4S            53.2602073943       61.1631440197       32.2612009334  MEMB      109             0.0000000000
     14512       115  POPC      C25            51.9364274722       61.4739103933       33.9686479881  MEMB      109             0.0000000000
     14513       115  POPC      H5R            50.8478840767       61.6390379939       34.0889689421  MEMB      109             0.0000000000
     14514       115  POPC      H5S            52.4820403372       62.3792153479       34.3177850256  MEMB      109             0.0000000000
     14515       115  POPC      C26            52.3065522439       60.2653590397       34.8268402750  MEMB      109             0.0000000000
     14516       115  POPC      H6R            53.2923380980       59.8842319886       34.4868274259  MEMB      109             0.0000000000
     14517       115  POPC      H6S            51.5514040720       59.4615392996       34.6725364233  MEMB      109             0.0000000000
     14518       115  POPC      C27            52.3993707631       60.5816683798       36.3246059762  MEMB      109             0.0000000000
     14519       115  POPC      H7R            51.5411572154       61.2204825192       36.6330893750  MEMB      109             0.0000000000
     14520       115  POPC      H7S            53.3228200432       61.1733800221       36.5046778385  MEMB      109             0.0000000000
     14521       115  POPC      C28            52.4251049099       59.3247768540       37.2169618904  MEMB      109             0.0000000000
     14522       115  POPC      H8R            51.3693445891       59.0485149843       37.4345863941  MEMB      109             0.0000000000
     14523       115  POPC      H8S            52.8732899177       59.6097996750       38.1953922267  MEMB      109             0.0000000000
     14524       115  POPC      C29            53.1083211610       58.1181029203       36.6136844355  MEMB      109             0.0000000000
     14525       115  POPC      H91            52.4825791881       57.5628551684       35.8973758633  MEMB      109             0.0000000000
     14526       115  POPC      C210           54.3700062231       57.6993003670       36.8134252227  MEMB      109             0.0000000000
     14527       115  POPC      H101           54.7145819743       56.7879689199       36.2994569949  MEMB      109             0.0000000000
     14528       115  POPC      C211           55.3921826866       58.3647773044       37.6947301389  MEMB      109             0.0000000000
     14529       115  POPC      H11R           54.9879879579       59.3009152261       38.1358919777  MEMB      109             0.0000000000
     14530       115  POPC      H11S           56.2436767363       58.6821882162       37.0573417064  MEMB      109             0.0000000000
     14531       115  POPC      C212           55.9949099218       57.5270912666       38.8425953736  MEMB      109             0.0000000000
     14532       115  POPC      H12R           56.9256893793       58.0299232602       39.1281158633  MEMB      109             0.0000000000
     14533       115  POPC      H12S           56.2859844812       56.5285806990       38.4847913448  MEMB      109             0.0000000000
     14534       115  POPC      C213           55.0434163086       57.4120305330       40.0349314814  MEMB      109             0.0000000000
     14535       115  POPC      H13R           54.3838779337       56.5629972932       39.7489259355  MEMB      109             0.0000000000
     14536       115  POPC      H13S           54.4666662353       58.3627938308       40.0892673345  MEMB      109             0.0000000000
     14537       115  POPC      C214           55.5427062162       57.1405215871       41.4654439691  MEMB      109             0.0000000000
     14538       115  POPC      H14R           54.6419676784       56.9796887703       42.1018845012  MEMB      109             0.0000000000
     14539       115  POPC      H14S           56.0559839662       58.0299284255       41.8851682007  MEMB      109             0.0000000000
     14540       115  POPC      C215           56.4231041057       55.9012584221       41.5620873612  MEMB      109             0.0000000000
     14541       115  POPC      H15R           57.3217760410       56.0747477654       40.9360520462  MEMB      109             0.0000000000
     14542       115  POPC      H15S           55.8660686363       55.0409205993       41.1313105997  MEMB      109             0.0000000000
     14543       115  POPC      C216           56.8483993975       55.5193903357       42.9821014439  MEMB      109             0.0000000000
     14544       115  POPC      H16R           57.2703472617       56.4046479844       43.5078973891  MEMB      109             0.0000000000
     14545       115  POPC      H16S           57.6535300951       54.7556345717       42.8982063900  MEMB      109             0.0000000000
     14546       115  POPC      C217           55.7054043119       54.9022269180       43.7919206240  MEMB      109             0.0000000000
     14547       115  POPC      H17R           55.2051313842       54.1257107591       43.1690997768  MEMB      109             0.0000000000
     14548       115  POPC      H17S           54.9494095329       55.6942705017       43.9898664776  MEMB      109             0.0000000000
     14549       115  POPC      C218           56.1621267017       54.2635544082       45.1069295004  MEMB      109             0.0000000000
     14550       115  POPC      H18R           55.2805943831       53.9740523666       45.7189356497  MEMB      109             0.0000000000
     14551       115  POPC      H18S           56.7813722444       54.9740231810       45.6962881660  MEMB      109             0.0000000000
     14552       115  POPC      H18T           56.7722971207       53.3586730978       44.9191736569  MEMB      109             0.0000000000
     14553       115  POPC      C33            53.0190724385       56.3173630583       33.0030828950  MEMB      109             0.0000000000
     14554       115  POPC      H3X            51.9487217542       56.6244337654       33.0007846376  MEMB      109             0.0000000000
     14555       115  POPC      H3Y            53.4882442609       56.7468299584       33.9210043480  MEMB      109             0.0000000000
     14556       115  POPC      C34            53.1282793293       54.7986082486       33.0748873370  MEMB      109             0.0000000000
     14557       115  POPC      H4X            54.1561396814       54.4958665482       32.7681578401  MEMB      109             0.0000000000
     14558       115  POPC      H4Y            52.4167097507       54.3223191532       32.3622572649  MEMB      109             0.0000000000
     14559       115  POPC      C35            52.8787121561       54.2693782058       34.4720298119  MEMB      109             0.0000000000
     14560       115  POPC      H5X            53.5007927641       54.8255802843       35.2096335373  MEMB      109             0.0000000000
     14561       115  POPC      H5Y            53.1656268118       53.1929260255       34.4998072112  MEMB      109             0.0000000000
     14562       115  POPC      C36            51.4455802296       54.3795672544       34.9348024338  MEMB      109             0.0000000000
     14563       115  POPC      H6X            50.7426523370       53.9695263587       34.1721522898  MEMB      109             0.0000000000
     14564       115  POPC      H6Y            51.1856946874       55.4495138811       35.0987768777  MEMB      109             0.0000000000
     14565       115  POPC      C37            51.3346166387       53.5853191661       36.2296765269  MEMB      109             0.0000000000
     14566       115  POPC      H7X            52.2070614000       53.7815755647       36.8912663949  MEMB      109             0.0000000000
     14567       115  POPC      H7Y            51.3505983078       52.5008820938       35.9692934151  MEMB      109             0.0000000000
     14568       115  POPC      C38            50.0507318466       53.9222693362       36.9479352031  MEMB      109             0.0000000000
     14569       115  POPC      H8X            49.5615013425       52.9680591679       37.2437366397  MEMB      109             0.0000000000
     14570       115  POPC      H8Y            49.3669636212       54.4379864497       36.2364937279  MEMB      109             0.0000000000
     14571       115  POPC      C39            50.1924820327       54.7764241661       38.2063797204  MEMB      109             0.0000000000
     14572       115  POPC      H9X            50.4634956425       54.1407179530       39.0786195077  MEMB      109             0.0000000000
     14573       115  POPC      H9Y            49.1760652559       55.1819089949       38.3777739889  MEMB      109             0.0000000000
     14574       115  POPC      C310           51.0829530711       56.0100711078       38.1837932091  MEMB      109             0.0000000000
     14575       115  POPC      H10X           50.8401297885       56.6290603694       37.2912774917  MEMB      109             0.0000000000
     14576       115  POPC      H10Y           52.1555520667       55.7233535102       38.1366105796  MEMB      109             0.0000000000
     14577       115  POPC      C311           50.7971729848       56.8288159093       39.4519482382  MEMB      109             0.0000000000
     14578       115  POPC      H11X           50.2166718225       56.2188565342       40.1675881704  MEMB      109             0.0000000000
     14579       115  POPC      H11Y           50.2111040027       57.7221637943       39.1736606523  MEMB      109             0.0000000000
     14580       115  POPC      C312           52.0301204138       57.2433865299       40.2270780154  MEMB      109             0.0000000000
     14581       115  POPC      H12X           52.6445823709       57.7796106599       39.4753066492  MEMB      109             0.0000000000
     14582       115  POPC      H12Y           52.5501465233       56.3140313496       40.5548026935  MEMB      109             0.0000000000
     14583       115  POPC      C313           51.8602458689       58.1567096959       41.4547090914  MEMB      109             0.0000000000
     14584       115  POPC      H13X           52.3228266041       59.1416311454       41.2095094855  MEMB      109             0.0000000000
     14585       115  POPC      H13Y           52.4522924527       57.7458132037       42.3034467308  MEMB      109             0.0000000000
     14586       115  POPC      C314           50.4291299526       58.4199267936       41.9242926651  MEMB      109             0.0000000000
     14587       115  POPC      H14X           49.6661219366       58.0793971019       41.2052288298  MEMB      109             0.0000000000
     14588       115  POPC      H14Y           50.3189237530       59.5215147403       41.9424412235  MEMB      109             0.0000000000
     14589       115  POPC      C315           50.0990215769       57.8440952117       43.3078718102  MEMB      109             0.0000000000
     14590       115  POPC      H15X           49.0275262826       58.0666805673       43.5250082745  MEMB      109             0.0000000000
     14591       115  POPC      H15Y           50.7212240815       58.3724258593       44.0632320397  MEMB      109             0.0000000000
     14592       115  POPC      C316           50.3248068943       56.3443750213       43.4724993944  MEMB      109             0.0000000000
     14593       115  POPC      H16X           51.4081787726       56.1197418129       43.5541952202  MEMB      109             0.0000000000
     14594       115  POPC      H16Y           49.9290089135       55.7840000109       42.6026106023  MEMB      109             0.0000000000
     14595       115  POPC      H16Z           49.8056348461       55.9921676561       44.3913826972  MEMB      109             0.0000000000
     14596       116  POPC      N              16.3356054192       60.7128846165       22.1486770170  MEMB      110             0.0000000000
     14597       116  POPC      C12            16.6058155698       59.6093645280       23.1564138920  MEMB      110             0.0000000000
     14598       116  POPC      H12A           17.5779905355       59.8095746761       23.5916272809  MEMB      110             0.0000000000
     14599       116  POPC      H12B           16.6930182226       58.6527134964       22.6491416477  MEMB      110             0.0000000000
     14600       116  POPC      C13            15.0662685845       60.4840132277       21.3939911913  MEMB      110             0.0000000000
     14601       116  POPC      H13A           14.2355400752       60.3766768083       22.0945048796  MEMB      110             0.0000000000
     14602       116  POPC      H13B           14.8461174481       61.2727354855       20.6845244616  MEMB      110             0.0000000000
     14603       116  POPC      H13C           15.0878432831       59.5364233636       20.8714298333  MEMB      110             0.0000000000
     14604       116  POPC      C14            16.2450884980       62.0259563467       22.8479507390  MEMB      110             0.0000000000
     14605       116  POPC      H14A           15.3776778120       62.0436648369       23.4992448921  MEMB      110             0.0000000000
     14606       116  POPC      H14B           17.1134574945       62.2378015151       23.4492783706  MEMB      110             0.0000000000
     14607       116  POPC      H14C           16.1086137568       62.8369425741       22.1358403909  MEMB      110             0.0000000000
     14608       116  POPC      C15            17.4378466250       60.8515290155       21.1665333941  MEMB      110             0.0000000000
     14609       116  POPC      H15A           17.5349690683       59.9653082978       20.5483503816  MEMB      110             0.0000000000
     14610       116  POPC      H15B           18.3830298720       60.9923273189       21.6762567704  MEMB      110             0.0000000000
     14611       116  POPC      H15C           17.2559829808       61.7077519963       20.5223596601  MEMB      110             0.0000000000
     14612       116  POPC      C11            15.6073112460       59.4379710997       24.3420925782  MEMB      110             0.0000000000
     14613       116  POPC      H11A           15.6787668223       60.3416480121       24.9853200386  MEMB      110             0.0000000000
     14614       116  POPC      H11B           15.9402409709       58.5792759735       24.9728156169  MEMB      110             0.0000000000
     14615       116  POPC      P              13.7186596891       57.9659511531       23.2875778078  MEMB      110             0.0000000000
     14616       116  POPC      O13            14.9077602410       57.1161188375       23.0471607496  MEMB      110             0.0000000000
     14617       116  POPC      O14            12.9031383352       58.3246341451       22.1010833880  MEMB      110             0.0000000000
     14618       116  POPC      O12            14.2429015311       59.2891950313       23.9484318147  MEMB      110             0.0000000000
     14619       116  POPC      O11            12.8195446965       57.3099128107       24.4234140125  MEMB      110             0.0000000000
     14620       116  POPC      C1             11.3969214054       57.1987831594       24.3167560401  MEMB      110             0.0000000000
     14621       116  POPC      HA             11.1527467684       56.2633898897       23.7801006735  MEMB      110             0.0000000000
     14622       116  POPC      HB             10.9639135795       58.0406722179       23.7214548980  MEMB      110             0.0000000000
     14623       116  POPC      C2             10.6162968222       57.1907907914       25.6915537925  MEMB      110             0.0000000000
     14624       116  POPC      HS              9.5562543870       57.4308270502       25.4381997999  MEMB      110             0.0000000000
     14625       116  POPC      O21            11.0831237572       58.1156826440       26.6751103392  MEMB      110             0.0000000000
     14626       116  POPC      C21            11.3485036914       59.3531472879       26.3238090940  MEMB      110             0.0000000000
     14627       116  POPC      O22            11.0509519591       59.8879323807       25.2712889420  MEMB      110             0.0000000000
     14628       116  POPC      C22            12.1524325717       59.9756586446       27.4663129774  MEMB      110             0.0000000000
     14629       116  POPC      H2R            12.2729524221       61.0488293890       27.2305793556  MEMB      110             0.0000000000
     14630       116  POPC      H2S            13.1546504036       59.5019284856       27.4759839347  MEMB      110             0.0000000000
     14631       116  POPC      C3             10.5845129636       55.7996713013       26.4117715558  MEMB      110             0.0000000000
     14632       116  POPC      HX             10.3426807821       55.0319261131       25.6485378480  MEMB      110             0.0000000000
     14633       116  POPC      HY              9.7448892200       55.8048305210       27.1460258640  MEMB      110             0.0000000000
     14634       116  POPC      O31            11.8394625502       55.4415780904       27.0296201122  MEMB      110             0.0000000000
     14635       116  POPC      C31            12.0312396233       55.8007679328       28.3017854806  MEMB      110             0.0000000000
     14636       116  POPC      O32            11.1700782396       56.1721605991       29.0782049953  MEMB      110             0.0000000000
     14637       116  POPC      C32            13.5228126945       55.6282628286       28.6114633496  MEMB      110             0.0000000000
     14638       116  POPC      H2X            14.0844317434       55.7092413732       27.6553718979  MEMB      110             0.0000000000
     14639       116  POPC      H2Y            13.6655213338       54.6187875362       29.0263684897  MEMB      110             0.0000000000
     14640       116  POPC      C23            11.4819360139       59.8727625574       28.8570631096  MEMB      110             0.0000000000
     14641       116  POPC      H3R            11.7491139389       58.9051986830       29.3329866407  MEMB      110             0.0000000000
     14642       116  POPC      H3S            10.3728145454       59.9079702395       28.7498253182  MEMB      110             0.0000000000
     14643       116  POPC      C24            11.9011276705       61.0663005049       29.7206112926  MEMB      110             0.0000000000
     14644       116  POPC      H4R            11.5811752082       61.9872422156       29.1764385990  MEMB      110             0.0000000000
     14645       116  POPC      H4S            13.0101745869       61.1047446175       29.8082907152  MEMB      110             0.0000000000
     14646       116  POPC      C25            11.2612760672       61.0958910927       31.1115162075  MEMB      110             0.0000000000
     14647       116  POPC      H5R            10.1678624068       60.9141909112       31.0315070178  MEMB      110             0.0000000000
     14648       116  POPC      H5S            11.4163710964       62.1214304264       31.5132377650  MEMB      110             0.0000000000
     14649       116  POPC      C26            11.9181431606       60.1201419000       32.0898552017  MEMB      110             0.0000000000
     14650       116  POPC      H6R            13.0130305419       60.2991977030       32.0142436632  MEMB      110             0.0000000000
     14651       116  POPC      H6S            11.7399636638       59.0681869136       31.7817129825  MEMB      110             0.0000000000
     14652       116  POPC      C27            11.4865306703       60.3485473704       33.5493268958  MEMB      110             0.0000000000
     14653       116  POPC      H7R            11.5831292757       61.4358584480       33.7715225178  MEMB      110             0.0000000000
     14654       116  POPC      H7S            12.1883048131       59.8172485368       34.2326376855  MEMB      110             0.0000000000
     14655       116  POPC      C28            10.0456086401       59.9006517016       33.8630010571  MEMB      110             0.0000000000
     14656       116  POPC      H8R             9.3441648871       60.3841923079       33.1474906428  MEMB      110             0.0000000000
     14657       116  POPC      H8S             9.7769292530       60.2916661179       34.8705939708  MEMB      110             0.0000000000
     14658       116  POPC      C29             9.8942872148       58.3999343706       33.8042708110  MEMB      110             0.0000000000
     14659       116  POPC      H91             9.8646134661       57.9765943668       32.7876128140  MEMB      110             0.0000000000
     14660       116  POPC      C210            9.7860524480       57.5691386092       34.8568500941  MEMB      110             0.0000000000
     14661       116  POPC      H101            9.6867372981       56.4876824009       34.6732140480  MEMB      110             0.0000000000
     14662       116  POPC      C211            9.7955706005       57.9788253987       36.3087888277  MEMB      110             0.0000000000
     14663       116  POPC      H11R            8.8672190927       58.5427154440       36.5427370964  MEMB      110             0.0000000000
     14664       116  POPC      H11S           10.6541559313       58.6535995394       36.5297106959  MEMB      110             0.0000000000
     14665       116  POPC      C212            9.8506221273       56.7712714583       37.2658466089  MEMB      110             0.0000000000
     14666       116  POPC      H12R            9.0469174746       56.0474601144       37.0151474596  MEMB      110             0.0000000000
     14667       116  POPC      H12S            9.6529893726       57.1309250652       38.3020360873  MEMB      110             0.0000000000
     14668       116  POPC      C213           11.2118960899       56.0651345849       37.2508470315  MEMB      110             0.0000000000
     14669       116  POPC      H13R           11.9699749497       56.8151117563       37.5459998696  MEMB      110             0.0000000000
     14670       116  POPC      H13S           11.4672265049       55.7360626937       36.2201638735  MEMB      110             0.0000000000
     14671       116  POPC      C214           11.2972526232       54.8569486148       38.1947919110  MEMB      110             0.0000000000
     14672       116  POPC      H14R           10.5184402017       54.1334223762       37.8813626773  MEMB      110             0.0000000000
     14673       116  POPC      H14S           11.0726839252       55.1814988050       39.2351233131  MEMB      110             0.0000000000
     14674       116  POPC      C215           12.6601635540       54.1416256396       38.1693948224  MEMB      110             0.0000000000
     14675       116  POPC      H15R           12.7771373937       53.6396098596       37.1833032223  MEMB      110             0.0000000000
     14676       116  POPC      H15S           12.6704075854       53.3484719022       38.9513845480  MEMB      110             0.0000000000
     14677       116  POPC      C216           13.8377485224       55.1006627315       38.3857309289  MEMB      110             0.0000000000
     14678       116  POPC      H16R           13.7535830078       55.5599728200       39.3943178918  MEMB      110             0.0000000000
     14679       116  POPC      H16S           13.7958149518       55.9244679275       37.6397622378  MEMB      110             0.0000000000
     14680       116  POPC      C217           15.2164276950       54.4628723184       38.2129327187  MEMB      110             0.0000000000
     14681       116  POPC      H17R           15.2530100384       53.9362551692       37.2324897188  MEMB      110             0.0000000000
     14682       116  POPC      H17S           15.3871418785       53.7153258962       39.0141752308  MEMB      110             0.0000000000
     14683       116  POPC      C218           16.3349713423       55.4984097169       38.2706296220  MEMB      110             0.0000000000
     14684       116  POPC      H18R           16.4201171199       55.9111559247       39.2989879777  MEMB      110             0.0000000000
     14685       116  POPC      H18S           16.1299568477       56.3412111703       37.5759417635  MEMB      110             0.0000000000
     14686       116  POPC      H18T           17.3052878942       55.0370538537       37.9929159315  MEMB      110             0.0000000000
     14687       116  POPC      C33            14.0850464581       56.6691609999       29.6010695599  MEMB      110             0.0000000000
     14688       116  POPC      H3X            13.7762837511       56.4158402193       30.6406611643  MEMB      110             0.0000000000
     14689       116  POPC      H3Y            13.6524291568       57.6624737250       29.3415894669  MEMB      110             0.0000000000
     14690       116  POPC      C34            15.6181123924       56.7695124414       29.5126028267  MEMB      110             0.0000000000
     14691       116  POPC      H4X            15.8890670160       57.0604953469       28.4717592595  MEMB      110             0.0000000000
     14692       116  POPC      H4Y            16.0749105842       55.7736131542       29.7127023662  MEMB      110             0.0000000000
     14693       116  POPC      C35            16.2278845030       57.7993677913       30.4759320709  MEMB      110             0.0000000000
     14694       116  POPC      H5X            17.3043047773       57.9336716229       30.2234763549  MEMB      110             0.0000000000
     14695       116  POPC      H5Y            16.1718353240       57.3922720374       31.5102186145  MEMB      110             0.0000000000
     14696       116  POPC      C36            15.5150922738       59.1606719299       30.4396056896  MEMB      110             0.0000000000
     14697       116  POPC      H6X            14.4699667646       59.0366077325       30.7991005893  MEMB      110             0.0000000000
     14698       116  POPC      H6Y            15.4567933581       59.5125647995       29.3849551525  MEMB      110             0.0000000000
     14699       116  POPC      C37            16.1873413638       60.2450452430       31.2958139726  MEMB      110             0.0000000000
     14700       116  POPC      H7X            15.5363961588       61.1471070893       31.2861780898  MEMB      110             0.0000000000
     14701       116  POPC      H7Y            17.1524032182       60.5351078781       30.8221093975  MEMB      110             0.0000000000
     14702       116  POPC      C38            16.4483379275       59.8385966427       32.7560089387  MEMB      110             0.0000000000
     14703       116  POPC      H8X            16.8819545740       60.7220009373       33.2723021933  MEMB      110             0.0000000000
     14704       116  POPC      H8Y            17.2061684564       59.0254324503       32.7888310004  MEMB      110             0.0000000000
     14705       116  POPC      C39            15.1954078844       59.3810520023       33.5214319399  MEMB      110             0.0000000000
     14706       116  POPC      H9X            14.7672683144       58.4808777739       33.0254282346  MEMB      110             0.0000000000
     14707       116  POPC      H9Y            14.4362589145       60.1907986475       33.4841649899  MEMB      110             0.0000000000
     14708       116  POPC      C310           15.4666580477       59.0587495253       34.9953329390  MEMB      110             0.0000000000
     14709       116  POPC      H10X           16.4120310767       58.4790307053       35.0832106805  MEMB      110             0.0000000000
     14710       116  POPC      H10Y           14.6397290568       58.4207176985       35.3856275000  MEMB      110             0.0000000000
     14711       116  POPC      C311           15.5389419635       60.3281580281       35.8503284233  MEMB      110             0.0000000000
     14712       116  POPC      H11X           14.5467332320       60.8340766717       35.8475864221  MEMB      110             0.0000000000
     14713       116  POPC      H11Y           16.2508166409       61.0426298840       35.3912162648  MEMB      110             0.0000000000
     14714       116  POPC      C312           15.9657263554       60.0474165316       37.2930236429  MEMB      110             0.0000000000
     14715       116  POPC      H12X           16.2084060360       61.0169626636       37.7721990509  MEMB      110             0.0000000000
     14716       116  POPC      H12Y           16.8914843901       59.4315149288       37.3158905403  MEMB      110             0.0000000000
     14717       116  POPC      C313           14.8464238521       59.3563352522       38.0706985389  MEMB      110             0.0000000000
     14718       116  POPC      H13X           14.8122754572       58.2839856865       37.7745542148  MEMB      110             0.0000000000
     14719       116  POPC      H13Y           13.8769508129       59.8177983928       37.7710105780  MEMB      110             0.0000000000
     14720       116  POPC      C314           14.9712649469       59.4638315356       39.5937393979  MEMB      110             0.0000000000
     14721       116  POPC      H14X           14.7665444646       60.5121846152       39.9065238954  MEMB      110             0.0000000000
     14722       116  POPC      H14Y           16.0092831927       59.2118809150       39.9063984205  MEMB      110             0.0000000000
     14723       116  POPC      C315           14.0021836680       58.5138569429       40.3095872393  MEMB      110             0.0000000000
     14724       116  POPC      H15X           14.0300152716       58.7124357819       41.4047329530  MEMB      110             0.0000000000
     14725       116  POPC      H15Y           14.3804593255       57.4805801508       40.1410017605  MEMB      110             0.0000000000
     14726       116  POPC      C316           12.5573097623       58.5714613143       39.8065009552  MEMB      110             0.0000000000
     14727       116  POPC      H16X           11.9289405087       57.8339969523       40.3506308346  MEMB      110             0.0000000000
     14728       116  POPC      H16Y           12.5102222614       58.3316041629       38.7278142968  MEMB      110             0.0000000000
     14729       116  POPC      H16Z           12.1290385428       59.5873104099       39.9351995402  MEMB      110             0.0000000000
     14730       117  POPC      N              59.7217176315       45.6905917262       21.5846387735  MEMB      111             0.0000000000
     14731       117  POPC      C12            59.1795961237       45.3715381214       22.9714854528  MEMB      111             0.0000000000
     14732       117  POPC      H12A           58.6310028094       44.4331159317       22.9359367193  MEMB      111             0.0000000000
     14733       117  POPC      H12B           58.4622242630       46.1377459533       23.2365642721  MEMB      111             0.0000000000
     14734       117  POPC      C13            60.5747345044       44.5493514947       21.0939776862  MEMB      111             0.0000000000
     14735       117  POPC      H13A           60.7935462065       44.6186658494       20.0317416434  MEMB      111             0.0000000000
     14736       117  POPC      H13B           61.5252208529       44.5554126363       21.6211776291  MEMB      111             0.0000000000
     14737       117  POPC      H13C           60.1157727811       43.5986707641       21.3318143200  MEMB      111             0.0000000000
     14738       117  POPC      C14            58.5858955761       45.8839572754       20.6282322888  MEMB      111             0.0000000000
     14739       117  POPC      H14A           57.9520793898       45.0038275558       20.6042384661  MEMB      111             0.0000000000
     14740       117  POPC      H14B           57.9788025140       46.7419764179       20.8881001060  MEMB      111             0.0000000000
     14741       117  POPC      H14C           58.9543887344       46.0674220569       19.6173563746  MEMB      111             0.0000000000
     14742       117  POPC      C15            60.5480955601       46.9352581423       21.6409621104  MEMB      111             0.0000000000
     14743       117  POPC      H15A           60.0044709261       47.7752335459       22.0524256308  MEMB      111             0.0000000000
     14744       117  POPC      H15B           60.9330185220       47.2377148706       20.6699068011  MEMB      111             0.0000000000
     14745       117  POPC      H15C           61.4143594390       46.7573383627       22.2740716607  MEMB      111             0.0000000000
     14746       117  POPC      C11            60.1961409284       45.2020048158       24.1267802619  MEMB      111             0.0000000000
     14747       117  POPC      H11A           59.6394560344       45.3182859554       25.0880708199  MEMB      111             0.0000000000
     14748       117  POPC      H11B           60.9735573828       45.9952679578       24.1084164829  MEMB      111             0.0000000000
     14749       117  POPC      P              61.7995518037       43.4012547241       25.1677907953  MEMB      111             0.0000000000
     14750       117  POPC      O13            62.1960261863       44.5228149463       26.0378756655  MEMB      111             0.0000000000
     14751       117  POPC      O14            62.8757704668       42.6834497191       24.4533923639  MEMB      111             0.0000000000
     14752       117  POPC      O12            60.7956083973       43.9125491120       24.0392898337  MEMB      111             0.0000000000
     14753       117  POPC      O11            60.9106268470       42.3446006022       25.9158381610  MEMB      111             0.0000000000
     14754       117  POPC      C1             59.5411468016       42.5178442314       26.2558465461  MEMB      111             0.0000000000
     14755       117  POPC      HA             58.9463230143       41.7244842329       25.7515614425  MEMB      111             0.0000000000
     14756       117  POPC      HB             59.1151049324       43.4861358924       25.9209878936  MEMB      111             0.0000000000
     14757       117  POPC      C2             59.3700606086       42.3439365036       27.7842169623  MEMB      111             0.0000000000
     14758       117  POPC      HS             58.2831414215       42.3231916183       28.0276698996  MEMB      111             0.0000000000
     14759       117  POPC      O21            60.0110053464       43.3975175547       28.5230378748  MEMB      111             0.0000000000
     14760       117  POPC      C21            59.4813145240       44.5891048931       28.3335688158  MEMB      111             0.0000000000
     14761       117  POPC      O22            58.3795609786       44.8066863706       27.8487340622  MEMB      111             0.0000000000
     14762       117  POPC      C22            60.4947981382       45.6632452785       28.7479315456  MEMB      111             0.0000000000
     14763       117  POPC      H2R            60.4088750168       46.4684359674       27.9861899950  MEMB      111             0.0000000000
     14764       117  POPC      H2S            61.5179464033       45.2458074513       28.6497110353  MEMB      111             0.0000000000
     14765       117  POPC      C3             59.9806878689       40.9855102137       28.2097364398  MEMB      111             0.0000000000
     14766       117  POPC      HX             61.0862769358       41.0094868351       28.0558938901  MEMB      111             0.0000000000
     14767       117  POPC      HY             59.5836669030       40.2009513333       27.5311649151  MEMB      111             0.0000000000
     14768       117  POPC      O31            59.5807807256       40.6861637351       29.5589397972  MEMB      111             0.0000000000
     14769       117  POPC      C31            60.4044882295       41.1834502526       30.4808416292  MEMB      111             0.0000000000
     14770       117  POPC      O32            61.5989040937       41.3806818999       30.3401997999  MEMB      111             0.0000000000
     14771       117  POPC      C32            59.5647375096       41.5613173548       31.7007185241  MEMB      111             0.0000000000
     14772       117  POPC      H2X            58.7462293055       40.8214063020       31.8129540571  MEMB      111             0.0000000000
     14773       117  POPC      H2Y            59.1127565876       42.5543165560       31.4858744182  MEMB      111             0.0000000000
     14774       117  POPC      C23            60.3014739750       46.3129077954       30.1458865971  MEMB      111             0.0000000000
     14775       117  POPC      H3R            59.2422422720       46.5645420240       30.3535177672  MEMB      111             0.0000000000
     14776       117  POPC      H3S            60.8656869266       47.2735150241       30.0707882970  MEMB      111             0.0000000000
     14777       117  POPC      C24            60.9574347213       45.5719182165       31.3296440910  MEMB      111             0.0000000000
     14778       117  POPC      H4R            61.9084588904       45.1362166102       30.9585365160  MEMB      111             0.0000000000
     14779       117  POPC      H4S            60.3176824018       44.7272416755       31.6566459638  MEMB      111             0.0000000000
     14780       117  POPC      C25            61.2521368519       46.5174193440       32.5194893969  MEMB      111             0.0000000000
     14781       117  POPC      H5R            60.2726103976       46.8223019374       32.9425630816  MEMB      111             0.0000000000
     14782       117  POPC      H5S            61.7676105237       47.4329700059       32.1472981714  MEMB      111             0.0000000000
     14783       117  POPC      C26            62.0954139446       45.9117776336       33.6575165035  MEMB      111             0.0000000000
     14784       117  POPC      H6R            63.1128194574       45.6765845079       33.3066129038  MEMB      111             0.0000000000
     14785       117  POPC      H6S            61.6412707937       44.9548440774       33.9593572347  MEMB      111             0.0000000000
     14786       117  POPC      C27            62.2820727906       46.8194662100       34.8874730396  MEMB      111             0.0000000000
     14787       117  POPC      H7R            62.6784302800       47.8012995438       34.5412456311  MEMB      111             0.0000000000
     14788       117  POPC      H7S            63.0547354450       46.3561280565       35.5466384259  MEMB      111             0.0000000000
     14789       117  POPC      C28            60.9881018162       47.0227766532       35.6957948559  MEMB      111             0.0000000000
     14790       117  POPC      H8R            60.6242824653       46.0476429071       36.0666292657  MEMB      111             0.0000000000
     14791       117  POPC      H8S            60.1914379850       47.3540673939       35.0001097872  MEMB      111             0.0000000000
     14792       117  POPC      C29            61.1550510635       48.0483620388       36.7941732585  MEMB      111             0.0000000000
     14793       117  POPC      H91            61.7995949544       48.8959445870       36.5201898778  MEMB      111             0.0000000000
     14794       117  POPC      C210           60.6395618060       48.0145011076       38.0366540145  MEMB      111             0.0000000000
     14795       117  POPC      H101           60.8174362567       48.8644189473       38.7131699448  MEMB      111             0.0000000000
     14796       117  POPC      C211           59.7782003290       46.9159804451       38.5913795143  MEMB      111             0.0000000000
     14797       117  POPC      H11R           60.0174962866       46.7227080496       39.6604216215  MEMB      111             0.0000000000
     14798       117  POPC      H11S           60.0731418146       45.9846251020       38.0741906671  MEMB      111             0.0000000000
     14799       117  POPC      C212           58.2504895644       47.1231762765       38.4597895950  MEMB      111             0.0000000000
     14800       117  POPC      H12R           58.0154853660       48.0196346219       37.8431468045  MEMB      111             0.0000000000
     14801       117  POPC      H12S           57.8334354279       47.3101251426       39.4765020021  MEMB      111             0.0000000000
     14802       117  POPC      C213           57.5216329604       45.9081913534       37.8506900505  MEMB      111             0.0000000000
     14803       117  POPC      H13R           57.7920651491       45.8323093534       36.7731681511  MEMB      111             0.0000000000
     14804       117  POPC      H13S           56.4216093482       46.0610079352       37.9167285937  MEMB      111             0.0000000000
     14805       117  POPC      C214           57.9000092164       44.5952941907       38.5460997988  MEMB      111             0.0000000000
     14806       117  POPC      H14R           57.6969159868       44.6774096013       39.6375693528  MEMB      111             0.0000000000
     14807       117  POPC      H14S           58.9879181929       44.4300018495       38.4074050508  MEMB      111             0.0000000000
     14808       117  POPC      C215           57.2423648980       43.3316004959       37.9958998036  MEMB      111             0.0000000000
     14809       117  POPC      H15R           57.2270635696       43.3786148925       36.8828856987  MEMB      111             0.0000000000
     14810       117  POPC      H15S           56.1885128931       43.2999615636       38.3240695249  MEMB      111             0.0000000000
     14811       117  POPC      C216           57.9793883345       42.0402596735       38.4152863542  MEMB      111             0.0000000000
     14812       117  POPC      H16R           58.6656237044       41.7692472495       37.5803843698  MEMB      111             0.0000000000
     14813       117  POPC      H16S           57.2421991518       41.2148328047       38.4994373170  MEMB      111             0.0000000000
     14814       117  POPC      C217           58.8401794099       42.0891225063       39.6987059669  MEMB      111             0.0000000000
     14815       117  POPC      H17R           59.4004123456       43.0381482008       39.8050777917  MEMB      111             0.0000000000
     14816       117  POPC      H17S           59.6341073550       41.3233265409       39.5724569698  MEMB      111             0.0000000000
     14817       117  POPC      C218           58.0896758279       41.8039824533       40.9996309902  MEMB      111             0.0000000000
     14818       117  POPC      H18R           57.3592638454       42.6156553479       41.2017940130  MEMB      111             0.0000000000
     14819       117  POPC      H18S           58.7906334690       41.7514784596       41.8595989223  MEMB      111             0.0000000000
     14820       117  POPC      H18T           57.5463123573       40.8365054055       40.9388693179  MEMB      111             0.0000000000
     14821       117  POPC      C33            60.4042436092       41.6474904655       32.9884958845  MEMB      111             0.0000000000
     14822       117  POPC      H3X            61.1656391434       42.4514922968       32.8723943861  MEMB      111             0.0000000000
     14823       117  POPC      H3Y            60.9573544723       40.6936535747       33.1331139148  MEMB      111             0.0000000000
     14824       117  POPC      C34            59.5354915504       41.9277846808       34.2249938639  MEMB      111             0.0000000000
     14825       117  POPC      H4X            59.4393574070       41.0061478309       34.8339836530  MEMB      111             0.0000000000
     14826       117  POPC      H4Y            58.5110183117       42.2156761206       33.8983143209  MEMB      111             0.0000000000
     14827       117  POPC      C35            60.0809769716       43.0225357345       35.1450110145  MEMB      111             0.0000000000
     14828       117  POPC      H5X            59.4210914050       43.0910071723       36.0376798289  MEMB      111             0.0000000000
     14829       117  POPC      H5Y            60.0033099464       44.0051105791       34.6353750935  MEMB      111             0.0000000000
     14830       117  POPC      C36            61.5182736792       42.7580865798       35.6216656358  MEMB      111             0.0000000000
     14831       117  POPC      H6X            62.2436322051       43.0852459940       34.8447937423  MEMB      111             0.0000000000
     14832       117  POPC      H6Y            61.6638317555       41.6668491463       35.7826907366  MEMB      111             0.0000000000
     14833       117  POPC      C37            61.8139281540       43.4743724050       36.9411488685  MEMB      111             0.0000000000
     14834       117  POPC      H7X            61.1595772965       43.0475207427       37.7310874478  MEMB      111             0.0000000000
     14835       117  POPC      H7Y            61.5386623422       44.5406991732       36.8532090160  MEMB      111             0.0000000000
     14836       117  POPC      C38            63.2874487867       43.4448196386       37.3603057352  MEMB      111             0.0000000000
     14837       117  POPC      H8X            63.8996619931       43.8299949004       36.5116448141  MEMB      111             0.0000000000
     14838       117  POPC      H8Y            63.6060249675       42.4023188627       37.5714382783  MEMB      111             0.0000000000
     14839       117  POPC      C39            63.5300594116       44.3361096342       38.5830700454  MEMB      111             0.0000000000
     14840       117  POPC      H9X            63.0847535995       45.3401818160       38.3824002277  MEMB      111             0.0000000000
     14841       117  POPC      H9Y            64.6223015045       44.4856409782       38.7369647746  MEMB      111             0.0000000000
     14842       117  POPC      C310           62.9182095836       43.7693779322       39.8715892534  MEMB      111             0.0000000000
     14843       117  POPC      H10X           63.5951545782       42.9877777476       40.2829668219  MEMB      111             0.0000000000
     14844       117  POPC      H10Y           61.9338138126       43.2947652193       39.6726394477  MEMB      111             0.0000000000
     14845       117  POPC      C311           62.6961110261       44.8733876903       40.9035556247  MEMB      111             0.0000000000
     14846       117  POPC      H11X           61.9307947413       45.5938174717       40.5368184587  MEMB      111             0.0000000000
     14847       117  POPC      H11Y           63.6517766488       45.4262361593       40.9968335388  MEMB      111             0.0000000000
     14848       117  POPC      C312           62.3200105469       44.3553957700       42.2913039439  MEMB      111             0.0000000000
     14849       117  POPC      H12X           62.6238109590       45.1251037252       43.0349446344  MEMB      111             0.0000000000
     14850       117  POPC      H12Y           62.8940484383       43.4470259350       42.5427017548  MEMB      111             0.0000000000
     14851       117  POPC      C313           60.8281170435       44.0865271036       42.4827194981  MEMB      111             0.0000000000
     14852       117  POPC      H13X           60.5397049450       43.1278531102       42.0029637134  MEMB      111             0.0000000000
     14853       117  POPC      H13Y           60.2478185538       44.8955753829       41.9876667475  MEMB      111             0.0000000000
     14854       117  POPC      C314           60.4984653555       44.0759271849       43.9758162976  MEMB      111             0.0000000000
     14855       117  POPC      H14X           60.9740275031       44.9691207174       44.4435873671  MEMB      111             0.0000000000
     14856       117  POPC      H14Y           60.9433961696       43.1766912908       44.4558584196  MEMB      111             0.0000000000
     14857       117  POPC      C315           59.0077392384       44.1457451588       44.2726947071  MEMB      111             0.0000000000
     14858       117  POPC      H15X           58.5303896601       43.1700362319       44.0360263836  MEMB      111             0.0000000000
     14859       117  POPC      H15Y           58.5478311205       44.9089234689       43.6039127209  MEMB      111             0.0000000000
     14860       117  POPC      C316           58.7396060479       44.5279527914       45.7262944265  MEMB      111             0.0000000000
     14861       117  POPC      H16X           57.7200889262       44.2043642383       46.0166063252  MEMB      111             0.0000000000
     14862       117  POPC      H16Y           58.8172107240       45.6304325561       45.8476012658  MEMB      111             0.0000000000
     14863       117  POPC      H16Z           59.4647224447       44.0640053820       46.4213570399  MEMB      111             0.0000000000
     14864       118  POPS      N               4.2273554923       22.2521755429       21.6812492267  MEMB      112             0.0000000000
     14865       118  POPS      HN1             4.5645113716       21.7601456813       22.5429381169  MEMB      112             0.0000000000
     14866       118  POPS      HN2             3.2042112979       22.0261038409       21.6146654916  MEMB      112             0.0000000000
     14867       118  POPS      HN3             4.7240007466       21.9053768370       20.8507496081  MEMB      112             0.0000000000
     14868       118  POPS      C12             4.4208344316       23.7068196434       21.9623677855  MEMB      112             0.0000000000
     14869       118  POPS      H12A            3.5534178163       24.0491458223       22.5079939494  MEMB      112             0.0000000000
     14870       118  POPS      C13             4.6127292592       24.6158071019       20.7115072758  MEMB      112             0.0000000000
     14871       118  POPS      O13A            5.0021213633       24.0891164455       19.6306538929  MEMB      112             0.0000000000
     14872       118  POPS      O13B            4.3741298070       25.8472843710       20.8135054465  MEMB      112             0.0000000000
     14873       118  POPS      C11             5.6491844837       23.7768255907       22.9056282530  MEMB      112             0.0000000000
     14874       118  POPS      H11A            5.7056962972       24.8000341886       23.3523897002  MEMB      112             0.0000000000
     14875       118  POPS      H11B            6.5775419925       23.6187210341       22.3146798661  MEMB      112             0.0000000000
     14876       118  POPS      P               5.2363242173       23.0826454150       25.3899944371  MEMB      112             0.0000000000
     14877       118  POPS      O13             3.9950716036       23.8886224856       25.3845732093  MEMB      112             0.0000000000
     14878       118  POPS      O14             6.4518636549       23.6654199768       25.9877369057  MEMB      112             0.0000000000
     14879       118  POPS      O12             5.5701031717       22.7369524274       23.8924471369  MEMB      112             0.0000000000
     14880       118  POPS      O11             5.0250622473       21.6152416343       25.9390691023  MEMB      112             0.0000000000
     14881       118  POPS      C1              3.8030261081       20.9116667843       25.7348425990  MEMB      112             0.0000000000
     14882       118  POPS      HA              4.0186664405       19.8360852630       25.5551215523  MEMB      112             0.0000000000
     14883       118  POPS      HB              3.2523813847       21.2756615057       24.8370210391  MEMB      112             0.0000000000
     14884       118  POPS      C2              2.8631780716       21.0444436000       26.9638894805  MEMB      112             0.0000000000
     14885       118  POPS      HS              1.8294289838       20.8881530120       26.6002699041  MEMB      112             0.0000000000
     14886       118  POPS      O21             3.0079696374       22.3629514986       27.5068437607  MEMB      112             0.0000000000
     14887       118  POPS      C21             1.9805153361       22.8154154311       28.1501402603  MEMB      112             0.0000000000
     14888       118  POPS      O22             0.9752681827       22.1809264461       28.4323274106  MEMB      112             0.0000000000
     14889       118  POPS      C22             2.1324041324       24.3092058410       28.4005936626  MEMB      112             0.0000000000
     14890       118  POPS      H2R             1.1728644898       24.6206331839       28.8524070680  MEMB      112             0.0000000000
     14891       118  POPS      H2S             2.2667093861       24.8037442226       27.4142723276  MEMB      112             0.0000000000
     14892       118  POPS      C3              3.1680995673       19.9605828614       28.0372463439  MEMB      112             0.0000000000
     14893       118  POPS      HX              2.8183619446       18.9932546318       27.6241181627  MEMB      112             0.0000000000
     14894       118  POPS      HY              2.5834980941       20.1500963456       28.9671149888  MEMB      112             0.0000000000
     14895       118  POPS      O31             4.5773699305       19.8357588519       28.2805876940  MEMB      112             0.0000000000
     14896       118  POPS      C31             5.0764976129       20.7994425840       29.0372637762  MEMB      112             0.0000000000
     14897       118  POPS      O32             4.4339338768       21.5304775915       29.7751249083  MEMB      112             0.0000000000
     14898       118  POPS      C32             6.5976659743       20.7260874556       28.9460607120  MEMB      112             0.0000000000
     14899       118  POPS      H2X             6.9079482104       21.0423704384       27.9291578267  MEMB      112             0.0000000000
     14900       118  POPS      H2Y             6.8870468125       19.6651021151       29.1067179347  MEMB      112             0.0000000000
     14901       118  POPS      C23             3.2960924562       24.7178251148       29.3322356100  MEMB      112             0.0000000000
     14902       118  POPS      H3R             4.2626090370       24.3554463730       28.9130308668  MEMB      112             0.0000000000
     14903       118  POPS      H3S             3.1492080373       24.2246782458       30.3172935042  MEMB      112             0.0000000000
     14904       118  POPS      C24             3.3434003173       26.2496473076       29.4868883450  MEMB      112             0.0000000000
     14905       118  POPS      H4R             2.3178557567       26.5916804220       29.7502286072  MEMB      112             0.0000000000
     14906       118  POPS      H4S             3.6084245993       26.6960367953       28.5032698420  MEMB      112             0.0000000000
     14907       118  POPS      C25             4.2978597687       26.7873170036       30.5676782815  MEMB      112             0.0000000000
     14908       118  POPS      H5R             4.1336297317       27.8820768845       30.6801434543  MEMB      112             0.0000000000
     14909       118  POPS      H5S             5.3513789913       26.6333922454       30.2397510315  MEMB      112             0.0000000000
     14910       118  POPS      C26             4.0735256656       26.0956428403       31.9137449152  MEMB      112             0.0000000000
     14911       118  POPS      H6R             4.5225849384       25.0794159601       31.8523160044  MEMB      112             0.0000000000
     14912       118  POPS      H6S             2.9802286039       25.9631064138       32.0778088745  MEMB      112             0.0000000000
     14913       118  POPS      C27             4.6592939109       26.8305941393       33.1240925630  MEMB      112             0.0000000000
     14914       118  POPS      H7R             3.9600588056       27.6397681780       33.4356096829  MEMB      112             0.0000000000
     14915       118  POPS      H7S             5.6244710869       27.3087860054       32.8408056616  MEMB      112             0.0000000000
     14916       118  POPS      C28             4.9241862446       25.8777308975       34.3030587379  MEMB      112             0.0000000000
     14917       118  POPS      H8R             5.2923363126       26.4836342111       35.1604871146  MEMB      112             0.0000000000
     14918       118  POPS      H8S             5.7618731556       25.2085778118       34.0169798868  MEMB      112             0.0000000000
     14919       118  POPS      C29             3.7278716615       25.0341995537       34.6751942542  MEMB      112             0.0000000000
     14920       118  POPS      H91             3.5359750180       24.1726931364       34.0135086634  MEMB      112             0.0000000000
     14921       118  POPS      C210            2.8989769056       25.2683176095       35.7054385676  MEMB      112             0.0000000000
     14922       118  POPS      H101            2.0617474614       24.5765385430       35.8956496705  MEMB      112             0.0000000000
     14923       118  POPS      C211            3.0301215487       26.4258736739       36.6633745891  MEMB      112             0.0000000000
     14924       118  POPS      H11R            2.0562064950       26.6210914983       37.1643109742  MEMB      112             0.0000000000
     14925       118  POPS      H11S            3.2897786197       27.3522214605       36.1048823586  MEMB      112             0.0000000000
     14926       118  POPS      C212            4.0982850752       26.2038571080       37.7495191449  MEMB      112             0.0000000000
     14927       118  POPS      H12R            4.3302704940       27.1695367559       38.2492939197  MEMB      112             0.0000000000
     14928       118  POPS      H12S            5.0416126988       25.8297737274       37.2936967406  MEMB      112             0.0000000000
     14929       118  POPS      C213            3.6122582141       25.2233626660       38.8123285965  MEMB      112             0.0000000000
     14930       118  POPS      H13R            3.1837492832       24.3326435123       38.2998253031  MEMB      112             0.0000000000
     14931       118  POPS      H13S            2.7998716296       25.7046306671       39.4011942450  MEMB      112             0.0000000000
     14932       118  POPS      C214            4.7173747729       24.7254790567       39.7418648769  MEMB      112             0.0000000000
     14933       118  POPS      H14R            5.0073305896       25.5198319070       40.4614285027  MEMB      112             0.0000000000
     14934       118  POPS      H14S            5.6157524805       24.4894338708       39.1325068973  MEMB      112             0.0000000000
     14935       118  POPS      C215            4.2636978025       23.4684935902       40.4882164638  MEMB      112             0.0000000000
     14936       118  POPS      H15R            5.0667465358       23.1406714056       41.1782245584  MEMB      112             0.0000000000
     14937       118  POPS      H15S            4.0825700719       22.6508038532       39.7547928492  MEMB      112             0.0000000000
     14938       118  POPS      C216            2.9905644938       23.6864073943       41.3028084042  MEMB      112             0.0000000000
     14939       118  POPS      H16R            2.1452823989       23.9875616484       40.6473885406  MEMB      112             0.0000000000
     14940       118  POPS      H16S            3.1644306998       24.5160674043       42.0164212743  MEMB      112             0.0000000000
     14941       118  POPS      C217            2.5800199276       22.4426253428       42.0819393984  MEMB      112             0.0000000000
     14942       118  POPS      H17R            3.4524896188       22.0282773539       42.6267818044  MEMB      112             0.0000000000
     14943       118  POPS      H17S            2.2789878514       21.6616536884       41.3548233130  MEMB      112             0.0000000000
     14944       118  POPS      C218            1.4364283979       22.7511697634       43.0438927165  MEMB      112             0.0000000000
     14945       118  POPS      H18R            0.5032191476       22.8825243337       42.4544492492  MEMB      112             0.0000000000
     14946       118  POPS      H18S            1.6328742606       23.6928435777       43.6031371862  MEMB      112             0.0000000000
     14947       118  POPS      H18T            1.2774341268       21.9309026858       43.7738218046  MEMB      112             0.0000000000
     14948       118  POPS      C33             7.2637245508       21.5909154384       30.0259236897  MEMB      112             0.0000000000
     14949       118  POPS      H3X             8.3103970009       21.2401346633       30.1768750035  MEMB      112             0.0000000000
     14950       118  POPS      H3Y             6.7037139818       21.4356992428       30.9724575964  MEMB      112             0.0000000000
     14951       118  POPS      C34             7.3078633982       23.0848176555       29.6902446313  MEMB      112             0.0000000000
     14952       118  POPS      H4X             6.2687146360       23.4674369364       29.5677938671  MEMB      112             0.0000000000
     14953       118  POPS      H4Y             7.8197963398       23.2281555091       28.7098660653  MEMB      112             0.0000000000
     14954       118  POPS      C35             8.0312734504       23.9209415750       30.7625957327  MEMB      112             0.0000000000
     14955       118  POPS      H5X             8.0220077189       24.9761738892       30.3998085234  MEMB      112             0.0000000000
     14956       118  POPS      H5Y             9.0949643898       23.6122701804       30.8444421551  MEMB      112             0.0000000000
     14957       118  POPS      C36             7.3551230760       23.8838648896       32.1440062892  MEMB      112             0.0000000000
     14958       118  POPS      H6X             6.2557758375       23.7990726448       31.9972173071  MEMB      112             0.0000000000
     14959       118  POPS      H6Y             7.5511987526       24.8573289741       32.6499145821  MEMB      112             0.0000000000
     14960       118  POPS      C37             7.8233674225       22.7694112878       33.0987717484  MEMB      112             0.0000000000
     14961       118  POPS      H7X             8.9172864039       22.8541456681       33.2692304713  MEMB      112             0.0000000000
     14962       118  POPS      H7Y             7.6513607720       21.7663189463       32.6637187656  MEMB      112             0.0000000000
     14963       118  POPS      C38             7.0752220177       22.8263649682       34.4379224425  MEMB      112             0.0000000000
     14964       118  POPS      H8X             6.0004746593       23.0504345623       34.2496320653  MEMB      112             0.0000000000
     14965       118  POPS      H8Y             7.4941617763       23.6617064669       35.0421990256  MEMB      112             0.0000000000
     14966       118  POPS      C39             7.1357265414       21.5194288897       35.2366912221  MEMB      112             0.0000000000
     14967       118  POPS      H9X             8.1787474375       21.1314241802       35.2231791634  MEMB      112             0.0000000000
     14968       118  POPS      H9Y             6.4842774016       20.7559848834       34.7538087788  MEMB      112             0.0000000000
     14969       118  POPS      C310            6.7013485527       21.7450444213       36.6901714004  MEMB      112             0.0000000000
     14970       118  POPS      H10X            5.6646514327       22.1495971351       36.7155227745  MEMB      112             0.0000000000
     14971       118  POPS      H10Y            7.3754328541       22.5258620290       37.1089397957  MEMB      112             0.0000000000
     14972       118  POPS      C311            6.7811617808       20.4806369390       37.5531217837  MEMB      112             0.0000000000
     14973       118  POPS      H11X            7.8038880130       20.0500279372       37.4555783440  MEMB      112             0.0000000000
     14974       118  POPS      H11Y            6.0622602080       19.7245213843       37.1627321875  MEMB      112             0.0000000000
     14975       118  POPS      C312            6.4989291832       20.7244629163       39.0491614865  MEMB      112             0.0000000000
     14976       118  POPS      H12X            6.7336484279       19.7855460148       39.5953056118  MEMB      112             0.0000000000
     14977       118  POPS      H12Y            5.4132745707       20.9146544876       39.1984804632  MEMB      112             0.0000000000
     14978       118  POPS      C313            7.2993925251       21.8972504337       39.6522896113  MEMB      112             0.0000000000
     14979       118  POPS      H13X            6.8116854788       22.8403552010       39.3352071733  MEMB      112             0.0000000000
     14980       118  POPS      H13Y            8.3270624216       21.9051445746       39.2243434495  MEMB      112             0.0000000000
     14981       118  POPS      C314            7.4199654387       21.8675768933       41.1891432916  MEMB      112             0.0000000000
     14982       118  POPS      H14X            6.4259093328       21.6744059556       41.6429476823  MEMB      112             0.0000000000
     14983       118  POPS      H14Y            7.7846484812       22.8616225558       41.5412292939  MEMB      112             0.0000000000
     14984       118  POPS      C315            8.4323042895       20.8008352048       41.6159163434  MEMB      112             0.0000000000
     14985       118  POPS      H15X            9.3928504265       21.1407193769       41.1809458684  MEMB      112             0.0000000000
     14986       118  POPS      H15Y            8.1408691399       19.8354317923       41.1482107553  MEMB      112             0.0000000000
     14987       118  POPS      C316            8.7258091885       20.5628671136       43.0946497103  MEMB      112             0.0000000000
     14988       118  POPS      H16X            9.0411692425       21.5086280548       43.5831361492  MEMB      112             0.0000000000
     14989       118  POPS      H16Y            9.5618243636       19.8317990521       43.1722071140  MEMB      112             0.0000000000
     14990       118  POPS      H16Z            7.8577176317       20.1472408722       43.6433046293  MEMB      112             0.0000000000
     14991       119  POPC      N              -0.0162872612       40.3664445631       24.0794767149  MEMB      113             0.0000000000
     14992       119  POPC      C12             1.3026070575       39.9241421033       24.7099664733  MEMB      113             0.0000000000
     14993       119  POPC      H12A            1.0587145144       39.2871862550       25.5487576552  MEMB      113             0.0000000000
     14994       119  POPC      H12B            1.8061242738       40.7939119474       25.1199687481  MEMB      113             0.0000000000
     14995       119  POPC      C13            -0.7163586279       39.1951947036       23.4412604848  MEMB      113             0.0000000000
     14996       119  POPC      H13A           -1.0590515624       38.4438868476       24.1460504245  MEMB      113             0.0000000000
     14997       119  POPC      H13B           -1.6048196732       39.4666006218       22.8792916302  MEMB      113             0.0000000000
     14998       119  POPC      H13C           -0.0614493005       38.7100397356       22.7229452187  MEMB      113             0.0000000000
     14999       119  POPC      C14            -0.9327535684       40.9728038641       25.0872747765  MEMB      113             0.0000000000
     15000       119  POPC      H14A           -1.2557464283       40.2678811738       25.8415906172  MEMB      113             0.0000000000
     15001       119  POPC      H14B           -0.5403812232       41.8616809777       25.5580356489  MEMB      113             0.0000000000
     15002       119  POPC      H14C           -1.8415370200       41.3247177401       24.5886272673  MEMB      113             0.0000000000
     15003       119  POPC      C15             0.2155739388       41.3705619600       22.9912407649  MEMB      113             0.0000000000
     15004       119  POPC      H15A            0.7716580119       42.2437152774       23.3030769789  MEMB      113             0.0000000000
     15005       119  POPC      H15B           -0.7183488963       41.6953567351       22.5522390339  MEMB      113             0.0000000000
     15006       119  POPC      H15C            0.8108803662       40.8905687085       22.2162935107  MEMB      113             0.0000000000
     15007       119  POPC      C11             2.3729625412       39.1792872408       23.8467659390  MEMB      113             0.0000000000
     15008       119  POPC      H11A            1.9304833404       38.2423467354       23.4414445325  MEMB      113             0.0000000000
     15009       119  POPC      H11B            3.1977494984       38.8769040850       24.5404891408  MEMB      113             0.0000000000
     15010       119  POPC      P               4.3962278324       40.3185687363       22.5257033313  MEMB      113             0.0000000000
     15011       119  POPC      O13             4.5712399732       41.0579047147       21.2446456819  MEMB      113             0.0000000000
     15012       119  POPC      O14             5.2324724336       39.1188718817       22.7285438668  MEMB      113             0.0000000000
     15013       119  POPC      O12             2.8501091252       39.9712951351       22.7604374921  MEMB      113             0.0000000000
     15014       119  POPC      O11             4.7323379874       41.3037580759       23.6830378638  MEMB      113             0.0000000000
     15015       119  POPC      C1              3.8518804838       42.2696225070       24.2253036836  MEMB      113             0.0000000000
     15016       119  POPC      HA              2.7897450175       42.0913998251       23.9654671152  MEMB      113             0.0000000000
     15017       119  POPC      HB              4.1388123279       43.2676084529       23.8227603049  MEMB      113             0.0000000000
     15018       119  POPC      C2              4.0366623147       42.3070635637       25.7608155809  MEMB      113             0.0000000000
     15019       119  POPC      HS              5.1275224491       42.5510449045       25.8765635086  MEMB      113             0.0000000000
     15020       119  POPC      O21             3.6045259395       41.0630795416       26.3990581111  MEMB      113             0.0000000000
     15021       119  POPC      C21             4.4788257446       40.7259933644       27.3599316241  MEMB      113             0.0000000000
     15022       119  POPC      O22             5.6030464475       41.1562155019       27.4452173538  MEMB      113             0.0000000000
     15023       119  POPC      C22             3.8351113199       39.7669201465       28.3907052628  MEMB      113             0.0000000000
     15024       119  POPC      H2R             3.9227069278       38.7470720189       27.9774124933  MEMB      113             0.0000000000
     15025       119  POPC      H2S             2.7602951865       40.0165556023       28.4751102123  MEMB      113             0.0000000000
     15026       119  POPC      C3              3.2377863458       43.4684351018       26.3967377746  MEMB      113             0.0000000000
     15027       119  POPC      HX              2.1941880821       43.3949952721       26.0146382900  MEMB      113             0.0000000000
     15028       119  POPC      HY              3.7079597022       44.4158269505       26.0336512463  MEMB      113             0.0000000000
     15029       119  POPC      O31             3.2429105038       43.3655894710       27.8387811824  MEMB      113             0.0000000000
     15030       119  POPC      C31             2.7415283312       44.4163237953       28.4494841703  MEMB      113             0.0000000000
     15031       119  POPC      O32             2.2075100870       45.3602425874       27.8894021547  MEMB      113             0.0000000000
     15032       119  POPC      C32             2.9411848993       44.2609211599       29.9653305037  MEMB      113             0.0000000000
     15033       119  POPC      H2X             2.2967019233       45.0169263824       30.4242080396  MEMB      113             0.0000000000
     15034       119  POPC      H2Y             3.9910069623       44.5626703038       30.1561833391  MEMB      113             0.0000000000
     15035       119  POPC      C23             4.5239532847       39.8629844075       29.7912266579  MEMB      113             0.0000000000
     15036       119  POPC      H3R             4.0045321701       40.6016508161       30.4268192419  MEMB      113             0.0000000000
     15037       119  POPC      H3S             5.5617082081       40.2491525054       29.6816081709  MEMB      113             0.0000000000
     15038       119  POPC      C24             4.6404388215       38.5671329484       30.6199919496  MEMB      113             0.0000000000
     15039       119  POPC      H4R             4.7517197314       37.6925564249       29.9521847745  MEMB      113             0.0000000000
     15040       119  POPC      H4S             3.7237700317       38.4356051209       31.2364749540  MEMB      113             0.0000000000
     15041       119  POPC      C25             5.8809962681       38.5049499384       31.5135844954  MEMB      113             0.0000000000
     15042       119  POPC      H5R             6.7660121318       38.6953917474       30.8585292625  MEMB      113             0.0000000000
     15043       119  POPC      H5S             6.0078859179       37.4882672064       31.9446755398  MEMB      113             0.0000000000
     15044       119  POPC      C26             5.8498460824       39.5483534712       32.6223805336  MEMB      113             0.0000000000
     15045       119  POPC      H6R             5.1443993012       40.3600613201       32.3448308957  MEMB      113             0.0000000000
     15046       119  POPC      H6S             6.8676694088       39.9863853837       32.6690695686  MEMB      113             0.0000000000
     15047       119  POPC      C27             5.5217972755       39.0123217188       34.0231156895  MEMB      113             0.0000000000
     15048       119  POPC      H7R             6.1290598947       38.0945800606       34.2038558398  MEMB      113             0.0000000000
     15049       119  POPC      H7S             4.4472913811       38.7351591273       34.0970276463  MEMB      113             0.0000000000
     15050       119  POPC      C28             5.9009147350       40.0541720216       35.0896114092  MEMB      113             0.0000000000
     15051       119  POPC      H8R             6.9749802261       40.2881685625       34.9182470574  MEMB      113             0.0000000000
     15052       119  POPC      H8S             5.8249424055       39.6046474499       36.1028162115  MEMB      113             0.0000000000
     15053       119  POPC      C29             5.0820733644       41.3141406787       34.9626584880  MEMB      113             0.0000000000
     15054       119  POPC      H91             4.7942263966       41.5891600375       33.9378038275  MEMB      113             0.0000000000
     15055       119  POPC      C210            4.7036356933       42.1294242659       35.9557447891  MEMB      113             0.0000000000
     15056       119  POPC      H101            4.0738656494       42.9996387648       35.7101700409  MEMB      113             0.0000000000
     15057       119  POPC      C211            5.0244692576       41.9467158947       37.4142558225  MEMB      113             0.0000000000
     15058       119  POPC      H11R            6.1262297151       41.9297823996       37.5603742788  MEMB      113             0.0000000000
     15059       119  POPC      H11S            4.6322275953       40.9770935723       37.7948671121  MEMB      113             0.0000000000
     15060       119  POPC      C212            4.4352300341       43.0849770008       38.2626958612  MEMB      113             0.0000000000
     15061       119  POPC      H12R            4.6107070449       44.0674945123       37.7821877155  MEMB      113             0.0000000000
     15062       119  POPC      H12S            4.9547625569       43.0895534180       39.2467766374  MEMB      113             0.0000000000
     15063       119  POPC      C213            2.9333134376       42.9376636265       38.5095004985  MEMB      113             0.0000000000
     15064       119  POPC      H13R            2.7833050661       41.9714199261       39.0303733070  MEMB      113             0.0000000000
     15065       119  POPC      H13S            2.3932523326       42.8950961784       37.5395882205  MEMB      113             0.0000000000
     15066       119  POPC      C214            2.3277910702       44.0940628951       39.3126445033  MEMB      113             0.0000000000
     15067       119  POPC      H14R            1.2201407360       43.9742135733       39.3460518965  MEMB      113             0.0000000000
     15068       119  POPC      H14S            2.5517670785       45.0367560791       38.7638188955  MEMB      113             0.0000000000
     15069       119  POPC      C215            2.8488241228       44.2070249020       40.7510258093  MEMB      113             0.0000000000
     15070       119  POPC      H15R            2.3984134474       45.1019186980       41.2294986604  MEMB      113             0.0000000000
     15071       119  POPC      H15S            3.9440116685       44.3787146064       40.7276224966  MEMB      113             0.0000000000
     15072       119  POPC      C216            2.5163898608       42.9736929736       41.6020189738  MEMB      113             0.0000000000
     15073       119  POPC      H16R            2.9964792217       42.0733229947       41.1601301593  MEMB      113             0.0000000000
     15074       119  POPC      H16S            1.4152108873       42.8143132864       41.5727230513  MEMB      113             0.0000000000
     15075       119  POPC      C217            2.9682806403       43.0907981430       43.0620627420  MEMB      113             0.0000000000
     15076       119  POPC      H17R            2.7285080628       42.1391841285       43.5867187643  MEMB      113             0.0000000000
     15077       119  POPC      H17S            2.3646059538       43.8894907199       43.5463270193  MEMB      113             0.0000000000
     15078       119  POPC      C218            4.4599561429       43.3929119311       43.2311700604  MEMB      113             0.0000000000
     15079       119  POPC      H18R            4.7269624509       43.4393787707       44.3078520634  MEMB      113             0.0000000000
     15080       119  POPC      H18S            4.7203448213       44.3698086886       42.7750014398  MEMB      113             0.0000000000
     15081       119  POPC      H18T            5.0737009921       42.6036654300       42.7474909065  MEMB      113             0.0000000000
     15082       119  POPC      C33             2.7115388480       42.8451725959       30.5978348568  MEMB      113             0.0000000000
     15083       119  POPC      H3X             3.5735698930       42.6734592899       31.2838269951  MEMB      113             0.0000000000
     15084       119  POPC      H3Y             2.7476623087       42.0599873936       29.8175107653  MEMB      113             0.0000000000
     15085       119  POPC      C34             1.4310271438       42.6669912006       31.4466701500  MEMB      113             0.0000000000
     15086       119  POPC      H4X             0.5581127223       42.4560648258       30.7913978925  MEMB      113             0.0000000000
     15087       119  POPC      H4Y             1.2331959391       43.6377456561       31.9348446908  MEMB      113             0.0000000000
     15088       119  POPC      C35             1.4826897697       41.6418693602       32.6149300526  MEMB      113             0.0000000000
     15089       119  POPC      H5X             2.5320142340       41.3569165568       32.8441219665  MEMB      113             0.0000000000
     15090       119  POPC      H5Y             0.9384100137       40.7192757051       32.3144500203  MEMB      113             0.0000000000
     15091       119  POPC      C36             0.8482237279       42.2365378047       33.8980222581  MEMB      113             0.0000000000
     15092       119  POPC      H6X            -0.0984945248       42.7392002463       33.5887829885  MEMB      113             0.0000000000
     15093       119  POPC      H6Y             1.5310002488       43.0202949318       34.2948192571  MEMB      113             0.0000000000
     15094       119  POPC      C37             0.4637804197       41.2741812498       35.0491249917  MEMB      113             0.0000000000
     15095       119  POPC      H7X            -0.2973638063       40.5647470833       34.6798075057  MEMB      113             0.0000000000
     15096       119  POPC      H7Y            -0.0408613187       41.8889830128       35.8293447454  MEMB      113             0.0000000000
     15097       119  POPC      C38             1.6270925349       40.5392514623       35.7461436746  MEMB      113             0.0000000000
     15098       119  POPC      H8X             2.2385277238       41.2985829026       36.2656335845  MEMB      113             0.0000000000
     15099       119  POPC      H8Y             2.2744767207       40.0605869377       34.9777898169  MEMB      113             0.0000000000
     15100       119  POPC      C39             1.2562365407       39.4625941251       36.7969905410  MEMB      113             0.0000000000
     15101       119  POPC      H9X             2.1745976413       39.1340961844       37.3288068433  MEMB      113             0.0000000000
     15102       119  POPC      H9Y             0.8954119039       38.5780323013       36.2221583397  MEMB      113             0.0000000000
     15103       119  POPC      C310            0.1484811686       39.8070536490       37.8180737264  MEMB      113             0.0000000000
     15104       119  POPC      H10X           -0.3769259771       38.8488181579       38.0324308856  MEMB      113             0.0000000000
     15105       119  POPC      H10Y           -0.5926565520       40.5013531903       37.3727605917  MEMB      113             0.0000000000
     15106       119  POPC      C311            0.5354418087       40.3258786480       39.2093494996  MEMB      113             0.0000000000
     15107       119  POPC      H11X           -0.4074456741       40.3493276186       39.8062834385  MEMB      113             0.0000000000
     15108       119  POPC      H11Y            0.8784632738       41.3741860813       39.1551568227  MEMB      113             0.0000000000
     15109       119  POPC      C312            1.5394778538       39.4382174465       39.9571847643  MEMB      113             0.0000000000
     15110       119  POPC      H12X            2.5781468671       39.7766647880       39.7470107914  MEMB      113             0.0000000000
     15111       119  POPC      H12Y            1.4391837150       38.3905304255       39.5895784160  MEMB      113             0.0000000000
     15112       119  POPC      C313            1.2778513368       39.4304460192       41.4692357755  MEMB      113             0.0000000000
     15113       119  POPC      H13X            0.2281112314       39.0946830412       41.6226708715  MEMB      113             0.0000000000
     15114       119  POPC      H13Y            1.3598127053       40.4603329530       41.8736997189  MEMB      113             0.0000000000
     15115       119  POPC      C314            2.2023158951       38.4811555501       42.2414558096  MEMB      113             0.0000000000
     15116       119  POPC      H14X            2.9297550863       38.0460282114       41.5206296790  MEMB      113             0.0000000000
     15117       119  POPC      H14Y            1.5888039060       37.6492775469       42.6524082770  MEMB      113             0.0000000000
     15118       119  POPC      C315            2.9849598923       39.1181719651       43.3991331735  MEMB      113             0.0000000000
     15119       119  POPC      H15X            3.5035289733       40.0314821294       43.0300653586  MEMB      113             0.0000000000
     15120       119  POPC      H15Y            3.7737999823       38.3942149589       43.7128984108  MEMB      113             0.0000000000
     15121       119  POPC      C316            2.1250354026       39.4556415863       44.6224996873  MEMB      113             0.0000000000
     15122       119  POPC      H16X            1.4635804491       38.6020356487       44.8776532705  MEMB      113             0.0000000000
     15123       119  POPC      H16Y            1.4943541339       40.3468619354       44.4233919108  MEMB      113             0.0000000000
     15124       119  POPC      H16Z            2.7512689630       39.6790787739       45.5089360441  MEMB      113             0.0000000000
     15125       120  POPC      N              62.8058502163       24.7958935823       22.5978578916  MEMB      114             0.0000000000
     15126       120  POPC      C12            63.8159991296       25.9375152804       22.4763866588  MEMB      114             0.0000000000
     15127       120  POPC      H12A           63.7062285611       26.3961668393       21.4895705074  MEMB      114             0.0000000000
     15128       120  POPC      H12B           64.8166367146       25.5437871429       22.5277157116  MEMB      114             0.0000000000
     15129       120  POPC      C13            63.0634528505       23.7824580881       21.5196411283  MEMB      114             0.0000000000
     15130       120  POPC      H13A           63.7764373212       23.0172998356       21.8057924013  MEMB      114             0.0000000000
     15131       120  POPC      H13B           62.1553270184       23.2614499524       21.2350489894  MEMB      114             0.0000000000
     15132       120  POPC      H13C           63.4128811212       24.2715891503       20.6166792699  MEMB      114             0.0000000000
     15133       120  POPC      C14            62.8529785445       24.1765051100       23.9578518267  MEMB      114             0.0000000000
     15134       120  POPC      H14A           62.8388754699       24.9444367350       24.7350956799  MEMB      114             0.0000000000
     15135       120  POPC      H14B           62.0104448722       23.5097370158       24.1711000464  MEMB      114             0.0000000000
     15136       120  POPC      H14C           63.7381739842       23.5741210005       24.0679830508  MEMB      114             0.0000000000
     15137       120  POPC      C15            61.4380801617       25.3466266449       22.3564797565  MEMB      114             0.0000000000
     15138       120  POPC      H15A           61.3747774298       25.7486841655       21.3547605553  MEMB      114             0.0000000000
     15139       120  POPC      H15B           61.2555827521       26.1828928714       23.0204866330  MEMB      114             0.0000000000
     15140       120  POPC      H15C           60.6605068289       24.6015335953       22.4805010482  MEMB      114             0.0000000000
     15141       120  POPC      C11            63.7195463190       27.1160558799       23.4654840975  MEMB      114             0.0000000000
     15142       120  POPC      H11A           64.7426318634       27.5542726798       23.5594103531  MEMB      114             0.0000000000
     15143       120  POPC      H11B           63.4078402382       26.7703434825       24.4770197491  MEMB      114             0.0000000000
     15144       120  POPC      P              62.6629557354       29.4505490450       23.7609581951  MEMB      114             0.0000000000
     15145       120  POPC      O13            61.8283317722       30.4039999178       22.9769106387  MEMB      114             0.0000000000
     15146       120  POPC      O14            64.0271340861       29.9076808375       24.1292530196  MEMB      114             0.0000000000
     15147       120  POPC      O12            62.8153516074       28.0875938294       22.9383681010  MEMB      114             0.0000000000
     15148       120  POPC      O11            61.9134955948       28.9066814054       25.0499754578  MEMB      114             0.0000000000
     15149       120  POPC      C1             60.7823097944       28.0368148431       24.8364565505  MEMB      114             0.0000000000
     15150       120  POPC      HA             61.0890494382       27.1002705923       24.3328190136  MEMB      114             0.0000000000
     15151       120  POPC      HB             60.0157044320       28.5491202193       24.2082690786  MEMB      114             0.0000000000
     15152       120  POPC      C2             60.0932280569       27.5498233997       26.1533550736  MEMB      114             0.0000000000
     15153       120  POPC      HS             58.9989284757       27.4419431280       25.9584981543  MEMB      114             0.0000000000
     15154       120  POPC      O21            60.3147171447       28.4791330679       27.2290704808  MEMB      114             0.0000000000
     15155       120  POPC      C21            59.8915480322       29.7029573133       26.9053625981  MEMB      114             0.0000000000
     15156       120  POPC      O22            58.9376586767       29.9379336494       26.1840598257  MEMB      114             0.0000000000
     15157       120  POPC      C22            60.7785996814       30.7511307242       27.5978567691  MEMB      114             0.0000000000
     15158       120  POPC      H2R            60.2769510249       31.0182632767       28.5426698085  MEMB      114             0.0000000000
     15159       120  POPC      H2S            60.7700547733       31.6229400641       26.9213415183  MEMB      114             0.0000000000
     15160       120  POPC      C3             60.6196987698       26.1328824679       26.5528122281  MEMB      114             0.0000000000
     15161       120  POPC      HX             60.2054534421       25.3943441396       25.8327235733  MEMB      114             0.0000000000
     15162       120  POPC      HY             60.1816005810       25.8629170513       27.5403128937  MEMB      114             0.0000000000
     15163       120  POPC      O31            62.0701695028       26.0604987256       26.5112087972  MEMB      114             0.0000000000
     15164       120  POPC      C31            62.6245877046       26.4528484807       27.6632934285  MEMB      114             0.0000000000
     15165       120  POPC      O32            62.0664611590       26.4327895460       28.7406500406  MEMB      114             0.0000000000
     15166       120  POPC      C32            64.0469896148       26.9620974610       27.4317824023  MEMB      114             0.0000000000
     15167       120  POPC      H2X            63.9890240583       27.6590436161       26.5659271870  MEMB      114             0.0000000000
     15168       120  POPC      H2Y            64.6976769258       26.1109127147       27.1601429993  MEMB      114             0.0000000000
     15169       120  POPC      C23            62.2518327361       30.3273553667       27.8733592408  MEMB      114             0.0000000000
     15170       120  POPC      H3R            62.8674916438       30.6188819890       26.9909430743  MEMB      114             0.0000000000
     15171       120  POPC      H3S            62.3325161338       29.2256511015       27.9605037828  MEMB      114             0.0000000000
     15172       120  POPC      C24            62.8675358707       30.9012596587       29.1639715431  MEMB      114             0.0000000000
     15173       120  POPC      H4R            62.7574379568       32.0011620910       29.1618411518  MEMB      114             0.0000000000
     15174       120  POPC      H4S            63.9610752170       30.6955970278       29.1638163739  MEMB      114             0.0000000000
     15175       120  POPC      C25            62.2772856859       30.3450165857       30.4789056516  MEMB      114             0.0000000000
     15176       120  POPC      H5R            62.8564444352       29.4515667034       30.8007835548  MEMB      114             0.0000000000
     15177       120  POPC      H5S            61.2422675093       30.0008251707       30.2823320681  MEMB      114             0.0000000000
     15178       120  POPC      C26            62.2916924036       31.4156488285       31.5855783321  MEMB      114             0.0000000000
     15179       120  POPC      H6R            61.7569182120       32.3032093148       31.1829618065  MEMB      114             0.0000000000
     15180       120  POPC      H6S            63.3496174696       31.7076562426       31.7610467098  MEMB      114             0.0000000000
     15181       120  POPC      C27            61.6565109541       31.0823217081       32.9522106295  MEMB      114             0.0000000000
     15182       120  POPC      H7R            60.5551198623       30.9821736422       32.8656299408  MEMB      114             0.0000000000
     15183       120  POPC      H7S            61.8243658903       31.9727037372       33.6029765591  MEMB      114             0.0000000000
     15184       120  POPC      C28            62.2576673450       29.8792267637       33.7072931724  MEMB      114             0.0000000000
     15185       120  POPC      H8R            62.2790678752       30.1469195721       34.7889187654  MEMB      114             0.0000000000
     15186       120  POPC      H8S            63.3113897959       29.7449962432       33.3889462919  MEMB      114             0.0000000000
     15187       120  POPC      C29            61.4839176212       28.6053304215       33.4942502401  MEMB      114             0.0000000000
     15188       120  POPC      H91            61.4744450751       28.2467628114       32.4518100788  MEMB      114             0.0000000000
     15189       120  POPC      C210           60.8542944288       27.8765441021       34.4360943348  MEMB      114             0.0000000000
     15190       120  POPC      H101           60.3203243791       26.9733702548       34.1099039805  MEMB      114             0.0000000000
     15191       120  POPC      C211           60.7663332089       28.1420398576       35.9240752561  MEMB      114             0.0000000000
     15192       120  POPC      H11R           61.6967288609       28.6020022146       36.3200025186  MEMB      114             0.0000000000
     15193       120  POPC      H11S           60.6463017725       27.1644647499       36.4379787178  MEMB      114             0.0000000000
     15194       120  POPC      C212           59.5925545410       29.0489796781       36.3395305847  MEMB      114             0.0000000000
     15195       120  POPC      H12R           58.7124990446       28.7446704640       35.7355375548  MEMB      114             0.0000000000
     15196       120  POPC      H12S           59.8379010485       30.1078545902       36.0963544638  MEMB      114             0.0000000000
     15197       120  POPC      C213           59.1573056089       28.9482512001       37.8153072693  MEMB      114             0.0000000000
     15198       120  POPC      H13R           58.4371424849       29.7711069429       38.0232020512  MEMB      114             0.0000000000
     15199       120  POPC      H13S           60.0240837820       29.0894912523       38.4942422760  MEMB      114             0.0000000000
     15200       120  POPC      C214           58.4443804346       27.6203869818       38.1046155258  MEMB      114             0.0000000000
     15201       120  POPC      H14R           59.1418087131       26.7792920163       37.9190706733  MEMB      114             0.0000000000
     15202       120  POPC      H14S           57.6086157938       27.5190834753       37.3799757130  MEMB      114             0.0000000000
     15203       120  POPC      C215           57.8619317181       27.4860549475       39.5175708914  MEMB      114             0.0000000000
     15204       120  POPC      H15R           58.6390758383       27.7373321486       40.2602011995  MEMB      114             0.0000000000
     15205       120  POPC      H15S           57.5921891332       26.4235459363       39.6946421785  MEMB      114             0.0000000000
     15206       120  POPC      C216           56.6066695550       28.3417848974       39.7131029957  MEMB      114             0.0000000000
     15207       120  POPC      H16R           56.0631926852       28.3985532393       38.7442036954  MEMB      114             0.0000000000
     15208       120  POPC      H16S           56.9133578961       29.3785384725       39.9738580668  MEMB      114             0.0000000000
     15209       120  POPC      C217           55.6243641519       27.8208588983       40.7694676559  MEMB      114             0.0000000000
     15210       120  POPC      H17R           56.0275230467       26.9101662108       41.2550850138  MEMB      114             0.0000000000
     15211       120  POPC      H17S           54.6925065521       27.4862244065       40.2652944354  MEMB      114             0.0000000000
     15212       120  POPC      C218           55.2812254754       28.8793287648       41.8199417091  MEMB      114             0.0000000000
     15213       120  POPC      H18R           54.8887887942       29.7887286528       41.3157893766  MEMB      114             0.0000000000
     15214       120  POPC      H18S           56.1864106763       29.1735029031       42.3946684367  MEMB      114             0.0000000000
     15215       120  POPC      H18T           54.5124554763       28.5089338451       42.5318233540  MEMB      114             0.0000000000
     15216       120  POPC      C33            64.6272641672       27.7431120469       28.6439413371  MEMB      114             0.0000000000
     15217       120  POPC      H3X            63.8414635817       28.2379483754       29.2501269757  MEMB      114             0.0000000000
     15218       120  POPC      H3Y            65.2532764486       28.5597456361       28.2133227000  MEMB      114             0.0000000000
     15219       120  POPC      C34            65.5466737762       26.9357194725       29.5735426847  MEMB      114             0.0000000000
     15220       120  POPC      H4X            66.2604690647       27.6464688816       30.0474921393  MEMB      114             0.0000000000
     15221       120  POPC      H4Y            66.1415842196       26.2294055293       28.9709990256  MEMB      114             0.0000000000
     15222       120  POPC      C35            64.8599769257       26.2414884214       30.7579854981  MEMB      114             0.0000000000
     15223       120  POPC      H5X            64.1717960215       25.4456900678       30.3991630244  MEMB      114             0.0000000000
     15224       120  POPC      H5Y            64.2450292935       27.0015952347       31.2902389599  MEMB      114             0.0000000000
     15225       120  POPC      C36            65.8956690681       25.6637073889       31.7387698805  MEMB      114             0.0000000000
     15226       120  POPC      H6X            66.6482611067       26.4412980095       31.9963975329  MEMB      114             0.0000000000
     15227       120  POPC      H6Y            66.4389337259       24.8349705290       31.2267798457  MEMB      114             0.0000000000
     15228       120  POPC      C37            65.3014744493       25.1157251769       33.0466099889  MEMB      114             0.0000000000
     15229       120  POPC      H7X            66.0986011986       24.5198331981       33.5464094678  MEMB      114             0.0000000000
     15230       120  POPC      H7Y            64.4614503048       24.4348250095       32.7815906823  MEMB      114             0.0000000000
     15231       120  POPC      C38            64.8116514804       26.1689409727       34.0541901839  MEMB      114             0.0000000000
     15232       120  POPC      H8X            64.0743737075       25.6910990537       34.7410764609  MEMB      114             0.0000000000
     15233       120  POPC      H8Y            64.2784656359       26.9823362569       33.5170622168  MEMB      114             0.0000000000
     15234       120  POPC      C39            65.9439545125       26.7456675375       34.9208216204  MEMB      114             0.0000000000
     15235       120  POPC      H9X            66.8300895262       26.9415830342       34.2745084259  MEMB      114             0.0000000000
     15236       120  POPC      H9Y            66.2384051123       25.9864340974       35.6765400135  MEMB      114             0.0000000000
     15237       120  POPC      C310           65.5778272488       28.0585684715       35.6278526114  MEMB      114             0.0000000000
     15238       120  POPC      H10X           65.3197514167       28.7815892371       34.8256729354  MEMB      114             0.0000000000
     15239       120  POPC      H10Y           66.4577535185       28.4617415809       36.1743159338  MEMB      114             0.0000000000
     15240       120  POPC      C311           64.3780896438       27.9648979353       36.5784717414  MEMB      114             0.0000000000
     15241       120  POPC      H11X           63.5383937994       27.4781110182       36.0380175168  MEMB      114             0.0000000000
     15242       120  POPC      H11Y           64.0454567977       28.9948161388       36.8453020220  MEMB      114             0.0000000000
     15243       120  POPC      C312           64.6436598609       27.2068814465       37.8865741675  MEMB      114             0.0000000000
     15244       120  POPC      H12X           65.2376841308       27.8662014833       38.5569522564  MEMB      114             0.0000000000
     15245       120  POPC      H12Y           65.2440375051       26.2895386522       37.7002065211  MEMB      114             0.0000000000
     15246       120  POPC      C313           63.3292244323       26.8133980623       38.5772768591  MEMB      114             0.0000000000
     15247       120  POPC      H13X           62.5764587308       27.6177237730       38.4205495840  MEMB      114             0.0000000000
     15248       120  POPC      H13Y           63.4741846888       26.7357051526       39.6723198850  MEMB      114             0.0000000000
     15249       120  POPC      C314           62.7737038253       25.4793592359       38.0580190522  MEMB      114             0.0000000000
     15250       120  POPC      H14X           63.4852652460       24.6510897916       38.2692349376  MEMB      114             0.0000000000
     15251       120  POPC      H14Y           62.6715535714       25.5638112027       36.9520957331  MEMB      114             0.0000000000
     15252       120  POPC      C315           61.4011885572       25.1412754381       38.6491002109  MEMB      114             0.0000000000
     15253       120  POPC      H15X           60.8141579127       24.5988212763       37.8739193294  MEMB      114             0.0000000000
     15254       120  POPC      H15Y           60.8716107469       26.0936790714       38.8707569740  MEMB      114             0.0000000000
     15255       120  POPC      C316           61.4397790559       24.2797886057       39.9109046070  MEMB      114             0.0000000000
     15256       120  POPC      H16X           62.3811836137       24.4252687405       40.4684153742  MEMB      114             0.0000000000
     15257       120  POPC      H16Y           61.3876636515       23.2061265863       39.6439773093  MEMB      114             0.0000000000
     15258       120  POPC      H16Z           60.5806275807       24.5184968663       40.5752807322  MEMB      114             0.0000000000
     15259       121  POPS      N              23.5074721422       61.8047073466       21.7257822294  MEMB      115             0.0000000000
     15260       121  POPS      HN1            23.9193395236       61.4262617923       22.5983796926  MEMB      115             0.0000000000
     15261       121  POPS      HN2            22.9734926697       61.0379304410       21.2506371926  MEMB      115             0.0000000000
     15262       121  POPS      HN3            24.2526291996       62.1631339289       21.0718014309  MEMB      115             0.0000000000
     15263       121  POPS      C12            22.6787529451       63.0258749921       22.0177703872  MEMB      115             0.0000000000
     15264       121  POPS      H12A           21.6761354569       62.8341607453       21.7186497619  MEMB      115             0.0000000000
     15265       121  POPS      C13            23.0417921764       64.1920165593       21.0717587371  MEMB      115             0.0000000000
     15266       121  POPS      O13A           23.8359322483       63.9219675137       20.1315273591  MEMB      115             0.0000000000
     15267       121  POPS      O13B           22.4766852720       65.3055780702       21.1792489609  MEMB      115             0.0000000000
     15268       121  POPS      C11            22.6542520239       63.3130061129       23.5515780958  MEMB      115             0.0000000000
     15269       121  POPS      H11A           23.5977862098       63.8485341659       23.8125026245  MEMB      115             0.0000000000
     15270       121  POPS      H11B           22.6627744769       62.3442317687       24.1024419471  MEMB      115             0.0000000000
     15271       121  POPS      P              21.4888587293       64.9251194498       25.2470937985  MEMB      115             0.0000000000
     15272       121  POPS      O13            20.5784737955       66.0790741876       25.0844213629  MEMB      115             0.0000000000
     15273       121  POPS      O14            22.8888440255       65.1873913971       25.6217812824  MEMB      115             0.0000000000
     15274       121  POPS      O12            21.4593331173       64.0158778379       23.9336727041  MEMB      115             0.0000000000
     15275       121  POPS      O11            20.8387634099       64.0022547184       26.3467837864  MEMB      115             0.0000000000
     15276       121  POPS      C1             20.1229713127       62.8098160486       26.0410954663  MEMB      115             0.0000000000
     15277       121  POPS      HA             20.8289366503       62.0254537582       25.6946614529  MEMB      115             0.0000000000
     15278       121  POPS      HB             19.3788950283       62.9930916124       25.2335771005  MEMB      115             0.0000000000
     15279       121  POPS      C2             19.3542696668       62.2340993831       27.2815078354  MEMB      115             0.0000000000
     15280       121  POPS      HS             18.5130868267       61.6109652619       26.9044514760  MEMB      115             0.0000000000
     15281       121  POPS      O21            18.8332782154       63.2142290455       28.1880242530  MEMB      115             0.0000000000
     15282       121  POPS      C21            18.3006595478       64.2926238633       27.6829653201  MEMB      115             0.0000000000
     15283       121  POPS      O22            17.8179492821       64.3976010378       26.5664609797  MEMB      115             0.0000000000
     15284       121  POPS      C22            18.2907263071       65.3973904614       28.7401071109  MEMB      115             0.0000000000
     15285       121  POPS      H2R            18.5369809518       64.9481848099       29.7216943832  MEMB      115             0.0000000000
     15286       121  POPS      H2S            17.2763111841       65.8246297757       28.8114102489  MEMB      115             0.0000000000
     15287       121  POPS      C3             20.2800232937       61.3045634328       28.1176500110  MEMB      115             0.0000000000
     15288       121  POPS      HX             20.3876729418       60.3658209118       27.5345071885  MEMB      115             0.0000000000
     15289       121  POPS      HY             19.7888656412       61.0442886531       29.0835495222  MEMB      115             0.0000000000
     15290       121  POPS      O31            21.5974077101       61.8551317595       28.3177424515  MEMB      115             0.0000000000
     15291       121  POPS      C31            21.6895425664       62.8938044005       29.1377468953  MEMB      115             0.0000000000
     15292       121  POPS      O32            20.8275883266       63.2654145910       29.9132720566  MEMB      115             0.0000000000
     15293       121  POPS      C32            23.0975398582       63.4629875936       29.0424341908  MEMB      115             0.0000000000
     15294       121  POPS      H2X            23.3383228887       63.5879601672       27.9623981749  MEMB      115             0.0000000000
     15295       121  POPS      H2Y            23.8134824383       62.7484896006       29.4923986011  MEMB      115             0.0000000000
     15296       121  POPS      C23            19.3040715605       66.5076388249       28.3996409835  MEMB      115             0.0000000000
     15297       121  POPS      H3R            19.2066365548       66.8203000207       27.3349095343  MEMB      115             0.0000000000
     15298       121  POPS      H3S            20.3325053002       66.0887432099       28.5134076968  MEMB      115             0.0000000000
     15299       121  POPS      C24            19.1602141249       67.7540695614       29.2817556857  MEMB      115             0.0000000000
     15300       121  POPS      H4R            18.3322661231       68.3944483760       28.9055926163  MEMB      115             0.0000000000
     15301       121  POPS      H4S            20.1133441925       68.3093677089       29.1796951415  MEMB      115             0.0000000000
     15302       121  POPS      C25            18.9377863803       67.4757969207       30.7723460494  MEMB      115             0.0000000000
     15303       121  POPS      H5R            17.9730966513       66.9425684875       30.9064254658  MEMB      115             0.0000000000
     15304       121  POPS      H5S            18.8583193473       68.4354108197       31.3220853411  MEMB      115             0.0000000000
     15305       121  POPS      C26            20.0949596993       66.6963703185       31.3984606680  MEMB      115             0.0000000000
     15306       121  POPS      H6R            21.0152316648       67.3231023045       31.3414048232  MEMB      115             0.0000000000
     15307       121  POPS      H6S            20.2957232927       65.7711089253       30.8151591638  MEMB      115             0.0000000000
     15308       121  POPS      C27            19.8482034923       66.3146175045       32.8606588737  MEMB      115             0.0000000000
     15309       121  POPS      H7R            19.7074762525       67.2461450682       33.4534653243  MEMB      115             0.0000000000
     15310       121  POPS      H7S            20.7627671653       65.8016886281       33.2268820697  MEMB      115             0.0000000000
     15311       121  POPS      C28            18.6481032810       65.3813053550       33.1088057482  MEMB      115             0.0000000000
     15312       121  POPS      H8R            17.7294872955       65.8351654006       32.6845466455  MEMB      115             0.0000000000
     15313       121  POPS      H8S            18.4946190046       65.3497732238       34.2100259632  MEMB      115             0.0000000000
     15314       121  POPS      C29            18.8549245542       63.9929392796       32.5514236054  MEMB      115             0.0000000000
     15315       121  POPS      H91            19.0994121267       63.9451141840       31.4777748011  MEMB      115             0.0000000000
     15316       121  POPS      C210           18.8126164650       62.8484335262       33.2580435367  MEMB      115             0.0000000000
     15317       121  POPS      H101           18.9785297776       61.8937922782       32.7364654234  MEMB      115             0.0000000000
     15318       121  POPS      C211           18.5491030880       62.7503077402       34.7409605442  MEMB      115             0.0000000000
     15319       121  POPS      H11R           17.4679800176       62.9405891973       34.9255260306  MEMB      115             0.0000000000
     15320       121  POPS      H11S           19.1112168211       63.5398946038       35.2857075640  MEMB      115             0.0000000000
     15321       121  POPS      C212           18.8963064021       61.3864411887       35.3796591750  MEMB      115             0.0000000000
     15322       121  POPS      H12R           18.2775316644       60.5924269853       34.9078052400  MEMB      115             0.0000000000
     15323       121  POPS      H12S           18.6196319453       61.4212577233       36.4577127725  MEMB      115             0.0000000000
     15324       121  POPS      C213           20.3615627689       60.9516965296       35.2582361440  MEMB      115             0.0000000000
     15325       121  POPS      H13R           20.6646224054       60.9978305967       34.1878383416  MEMB      115             0.0000000000
     15326       121  POPS      H13S           20.4481787622       59.8864614777       35.5734801965  MEMB      115             0.0000000000
     15327       121  POPS      C214           21.3400795468       61.7885944692       36.0895492659  MEMB      115             0.0000000000
     15328       121  POPS      H14R           21.1315289782       62.8737040591       35.9862139774  MEMB      115             0.0000000000
     15329       121  POPS      H14S           22.3493359200       61.6143108018       35.6551565422  MEMB      115             0.0000000000
     15330       121  POPS      C215           21.4006348783       61.3814464012       37.5679560353  MEMB      115             0.0000000000
     15331       121  POPS      H15R           21.1416365768       60.3017182974       37.6585459796  MEMB      115             0.0000000000
     15332       121  POPS      H15S           20.6464364101       61.9603373834       38.1467273328  MEMB      115             0.0000000000
     15333       121  POPS      C216           22.8110366999       61.5821464985       38.1440291094  MEMB      115             0.0000000000
     15334       121  POPS      H16R           23.0274253341       62.6728330668       38.1843119292  MEMB      115             0.0000000000
     15335       121  POPS      H16S           23.5493527009       61.1183172009       37.4488278069  MEMB      115             0.0000000000
     15336       121  POPS      C217           23.0288463625       60.9659415103       39.5328440392  MEMB      115             0.0000000000
     15337       121  POPS      H17R           24.0489099302       61.2530476783       39.8763386415  MEMB      115             0.0000000000
     15338       121  POPS      H17S           23.0107792814       59.8548195041       39.4411929755  MEMB      115             0.0000000000
     15339       121  POPS      C218           22.0147994361       61.3966204426       40.5916071124  MEMB      115             0.0000000000
     15340       121  POPS      H18R           21.0058967434       61.0117346429       40.3489689589  MEMB      115             0.0000000000
     15341       121  POPS      H18S           21.9485014719       62.5022656492       40.6399403608  MEMB      115             0.0000000000
     15342       121  POPS      H18T           22.3045696144       61.0150526327       41.5937674387  MEMB      115             0.0000000000
     15343       121  POPS      C33            23.1820645323       64.8422064961       29.7165666665  MEMB      115             0.0000000000
     15344       121  POPS      H3X            22.4054627036       65.5188826612       29.2944379962  MEMB      115             0.0000000000
     15345       121  POPS      H3Y            24.1618028148       65.2750680850       29.4344381850  MEMB      115             0.0000000000
     15346       121  POPS      C34            23.0908727132       64.8256199357       31.2493965202  MEMB      115             0.0000000000
     15347       121  POPS      H4X            22.1364977721       64.3683527264       31.5871832423  MEMB      115             0.0000000000
     15348       121  POPS      H4Y            23.0647355796       65.8867305381       31.5845695115  MEMB      115             0.0000000000
     15349       121  POPS      C35            24.2658507168       64.1213863590       31.9386696988  MEMB      115             0.0000000000
     15350       121  POPS      H5X            25.2033456148       64.3546978662       31.3862017636  MEMB      115             0.0000000000
     15351       121  POPS      H5Y            24.1267061046       63.0187135080       31.9030872934  MEMB      115             0.0000000000
     15352       121  POPS      C36            24.4135601300       64.6010753814       33.3850441923  MEMB      115             0.0000000000
     15353       121  POPS      H6X            24.3724544412       65.7145612691       33.3962626080  MEMB      115             0.0000000000
     15354       121  POPS      H6Y            25.4057796229       64.3035815403       33.7899363172  MEMB      115             0.0000000000
     15355       121  POPS      C37            23.3168645846       64.0501173767       34.3043887562  MEMB      115             0.0000000000
     15356       121  POPS      H7X            23.5766202308       62.9954831147       34.5391045080  MEMB      115             0.0000000000
     15357       121  POPS      H7Y            22.3297983537       64.0385944516       33.7899803720  MEMB      115             0.0000000000
     15358       121  POPS      C38            23.1944533215       64.8534092416       35.6056391881  MEMB      115             0.0000000000
     15359       121  POPS      H8X            24.1562151370       65.3793368988       35.7996714586  MEMB      115             0.0000000000
     15360       121  POPS      H8Y            23.0219406140       64.1498076679       36.4477907618  MEMB      115             0.0000000000
     15361       121  POPS      C39            22.0492979433       65.8801089811       35.5782583422  MEMB      115             0.0000000000
     15362       121  POPS      H9X            21.0694183469       65.3506452346       35.6050482722  MEMB      115             0.0000000000
     15363       121  POPS      H9Y            22.1156801669       66.4517387998       34.6261899086  MEMB      115             0.0000000000
     15364       121  POPS      C310           22.1234611105       66.8906175210       36.7267581002  MEMB      115             0.0000000000
     15365       121  POPS      H10X           21.3348775843       67.6675638012       36.6086868768  MEMB      115             0.0000000000
     15366       121  POPS      H10Y           23.0989352973       67.4113462934       36.6478454231  MEMB      115             0.0000000000
     15367       121  POPS      C311           21.9912650765       66.2352527112       38.1042162159  MEMB      115             0.0000000000
     15368       121  POPS      H11X           22.6637940870       65.3542657293       38.1845560571  MEMB      115             0.0000000000
     15369       121  POPS      H11Y           20.9441489616       65.8734894324       38.2210916121  MEMB      115             0.0000000000
     15370       121  POPS      C312           22.3301633964       67.1986955012       39.2446743121  MEMB      115             0.0000000000
     15371       121  POPS      H12X           21.8632178542       68.1684887732       39.0081809043  MEMB      115             0.0000000000
     15372       121  POPS      H12Y           23.4245391414       67.3734016700       39.2985645304  MEMB      115             0.0000000000
     15373       121  POPS      C313           21.7985406623       66.7272941631       40.6003848670  MEMB      115             0.0000000000
     15374       121  POPS      H13X           20.6877762890       66.6615268080       40.5256003838  MEMB      115             0.0000000000
     15375       121  POPS      H13Y           22.0373486954       67.4837935746       41.3810341592  MEMB      115             0.0000000000
     15376       121  POPS      C314           22.3429549014       65.3588084715       41.0209001683  MEMB      115             0.0000000000
     15377       121  POPS      H14X           22.1115025708       64.6096041508       40.2333151452  MEMB      115             0.0000000000
     15378       121  POPS      H14Y           21.8087494339       65.0364333737       41.9389888449  MEMB      115             0.0000000000
     15379       121  POPS      C315           23.8460932533       65.3476593492       41.3195082555  MEMB      115             0.0000000000
     15380       121  POPS      H15X           24.0465680554       66.0731845935       42.1408359926  MEMB      115             0.0000000000
     15381       121  POPS      H15Y           24.4163966833       65.6879215719       40.4253989080  MEMB      115             0.0000000000
     15382       121  POPS      C316           24.3354495494       63.9581560863       41.7262819708  MEMB      115             0.0000000000
     15383       121  POPS      H16X           24.3665428503       63.2912647802       40.8381303212  MEMB      115             0.0000000000
     15384       121  POPS      H16Y           23.6388611335       63.5081143032       42.4670943610  MEMB      115             0.0000000000
     15385       121  POPS      H16Z           25.3516577507       64.0052725269       42.1724600944  MEMB      115             0.0000000000
     15386       122  POPC      N               8.4014707516       52.4332912910       23.3377490436  MEMB      116             0.0000000000
     15387       122  POPC      C12             8.1323754287       53.6719404588       24.1684579537  MEMB      116             0.0000000000
     15388       122  POPC      H12A            8.7044956944       53.6059617415       25.0820103902  MEMB      116             0.0000000000
     15389       122  POPC      H12B            7.0801526629       53.6862151959       24.4620102321  MEMB      116             0.0000000000
     15390       122  POPC      C13             9.7315918598       52.4884257328       22.6531515445  MEMB      116             0.0000000000
     15391       122  POPC      H13A            9.9784234735       51.5710752739       22.1268265154  MEMB      116             0.0000000000
     15392       122  POPC      H13B            9.7145488444       53.2996824477       21.9134748758  MEMB      116             0.0000000000
     15393       122  POPC      H13C           10.5201864128       52.7377141838       23.3447082345  MEMB      116             0.0000000000
     15394       122  POPC      C14             8.2717843170       51.2499612416       24.2153635170  MEMB      116             0.0000000000
     15395       122  POPC      H14A            8.9373393485       51.2983978553       25.0692869645  MEMB      116             0.0000000000
     15396       122  POPC      H14B            7.2682796327       51.1617403405       24.6521849546  MEMB      116             0.0000000000
     15397       122  POPC      H14C            8.4591474463       50.3270402053       23.6968656860  MEMB      116             0.0000000000
     15398       122  POPC      C15             7.3460496237       52.3767518601       22.2777167871  MEMB      116             0.0000000000
     15399       122  POPC      H15A            6.3703826314       52.3312511974       22.7412111208  MEMB      116             0.0000000000
     15400       122  POPC      H15B            7.4874581449       51.5289802580       21.6373246617  MEMB      116             0.0000000000
     15401       122  POPC      H15C            7.3778939812       53.2935328918       21.6777429136  MEMB      116             0.0000000000
     15402       122  POPC      C11             8.4461927578       55.0244684801       23.5016826527  MEMB      116             0.0000000000
     15403       122  POPC      H11A            9.5407856896       55.0521954460       23.3769166028  MEMB      116             0.0000000000
     15404       122  POPC      H11B            8.2245254092       55.8409640569       24.2369018153  MEMB      116             0.0000000000
     15405       122  POPC      P               6.4525967003       56.0396023665       22.2740670628  MEMB      116             0.0000000000
     15406       122  POPC      O13             5.6049615226       55.8460911466       21.0724531935  MEMB      116             0.0000000000
     15407       122  POPC      O14             6.8276855017       57.4180998319       22.6360816568  MEMB      116             0.0000000000
     15408       122  POPC      O12             7.7914217457       55.1894030399       22.2211038499  MEMB      116             0.0000000000
     15409       122  POPC      O11             5.7919979698       55.3369962482       23.5102035686  MEMB      116             0.0000000000
     15410       122  POPC      C1              4.4936846758       55.7175236897       23.9474252352  MEMB      116             0.0000000000
     15411       122  POPC      HA              3.7496583072       55.6632014596       23.1230463908  MEMB      116             0.0000000000
     15412       122  POPC      HB              4.4970743639       56.7593424344       24.3515192626  MEMB      116             0.0000000000
     15413       122  POPC      C2              4.0615600486       54.7572832042       25.0725686464  MEMB      116             0.0000000000
     15414       122  POPC      HS              3.1452719708       55.1151320558       25.5919213301  MEMB      116             0.0000000000
     15415       122  POPC      O21             5.1441162054       54.6316346374       26.0004529723  MEMB      116             0.0000000000
     15416       122  POPC      C21             5.2734305093       55.6483892371       26.7960936968  MEMB      116             0.0000000000
     15417       122  POPC      O22             4.5239508462       56.5981743228       26.9147848512  MEMB      116             0.0000000000
     15418       122  POPC      C22             6.4930654043       55.3844660130       27.6740863342  MEMB      116             0.0000000000
     15419       122  POPC      H2R             6.9692775184       56.3511740939       27.9193987191  MEMB      116             0.0000000000
     15420       122  POPC      H2S             7.2171522177       54.7624354203       27.1100080685  MEMB      116             0.0000000000
     15421       122  POPC      C3              3.7113015197       53.3585053143       24.5212982249  MEMB      116             0.0000000000
     15422       122  POPC      HX              4.5534782793       53.0072527058       23.8834928926  MEMB      116             0.0000000000
     15423       122  POPC      HY              2.8162236117       53.4513508319       23.8681903628  MEMB      116             0.0000000000
     15424       122  POPC      O31             3.4125632487       52.4726951187       25.6199881478  MEMB      116             0.0000000000
     15425       122  POPC      C31             4.4923659368       51.9383220833       26.1767375661  MEMB      116             0.0000000000
     15426       122  POPC      O32             5.5927372845       51.8758747300       25.6594924436  MEMB      116             0.0000000000
     15427       122  POPC      C32             4.1105885027       51.4113490600       27.5704154661  MEMB      116             0.0000000000
     15428       122  POPC      H2X             3.4386161154       50.5368650531       27.4503691164  MEMB      116             0.0000000000
     15429       122  POPC      H2Y             3.5306975136       52.2198254006       28.0694098360  MEMB      116             0.0000000000
     15430       122  POPC      C23             6.0534571483       54.6633024009       28.9582030067  MEMB      116             0.0000000000
     15431       122  POPC      H3R             6.9528818862       54.4695347409       29.5867690189  MEMB      116             0.0000000000
     15432       122  POPC      H3S             5.5754888213       53.6950264866       28.7058085638  MEMB      116             0.0000000000
     15433       122  POPC      C24             5.0557573679       55.4715882354       29.7821284142  MEMB      116             0.0000000000
     15434       122  POPC      H4R             4.1524617795       55.7129488533       29.1804833887  MEMB      116             0.0000000000
     15435       122  POPC      H4S             5.5394578476       56.4367060987       30.0545901252  MEMB      116             0.0000000000
     15436       122  POPC      C25             4.6059234299       54.7441925935       31.0486708878  MEMB      116             0.0000000000
     15437       122  POPC      H5R             5.4143089799       54.0586718355       31.3869338242  MEMB      116             0.0000000000
     15438       122  POPC      H5S             3.7097381216       54.1249449240       30.8308375839  MEMB      116             0.0000000000
     15439       122  POPC      C26             4.3183815112       55.7603999187       32.1570541555  MEMB      116             0.0000000000
     15440       122  POPC      H6R             3.6344582596       56.5382622679       31.7620148597  MEMB      116             0.0000000000
     15441       122  POPC      H6S             5.2758101413       56.2684263157       32.4117444423  MEMB      116             0.0000000000
     15442       122  POPC      C27             3.7245663681       55.1529344015       33.4314103793  MEMB      116             0.0000000000
     15443       122  POPC      H7R             2.7820061009       54.6189395117       33.1868909316  MEMB      116             0.0000000000
     15444       122  POPC      H7S             3.4525050156       55.9835892920       34.1216451497  MEMB      116             0.0000000000
     15445       122  POPC      C28             4.7366654217       54.2170964923       34.1101216558  MEMB      116             0.0000000000
     15446       122  POPC      H8R             5.7059606823       54.7610996500       34.1694324259  MEMB      116             0.0000000000
     15447       122  POPC      H8S             4.9054042542       53.3342560481       33.4561852023  MEMB      116             0.0000000000
     15448       122  POPC      C29             4.3335586291       53.7391796882       35.4731487757  MEMB      116             0.0000000000
     15449       122  POPC      H91             3.9038936748       52.7341960672       35.5108300531  MEMB      116             0.0000000000
     15450       122  POPC      C210            4.4538142442       54.4111130242       36.6212405008  MEMB      116             0.0000000000
     15451       122  POPC      H101            4.1243410802       53.9100819468       37.5437840918  MEMB      116             0.0000000000
     15452       122  POPC      C211            5.0170400522       55.7993477880       36.7910228069  MEMB      116             0.0000000000
     15453       122  POPC      H11R            4.8655038037       56.4233785990       35.8827778347  MEMB      116             0.0000000000
     15454       122  POPC      H11S            6.1096025729       55.7706454637       36.9932543949  MEMB      116             0.0000000000
     15455       122  POPC      C212            4.3293675487       56.4754310829       37.9838069907  MEMB      116             0.0000000000
     15456       122  POPC      H12R            3.2391653044       56.4597310035       37.8003148627  MEMB      116             0.0000000000
     15457       122  POPC      H12S            4.6283514976       57.5405430854       38.0424766732  MEMB      116             0.0000000000
     15458       122  POPC      C213            4.7102816128       55.7997914587       39.3062714483  MEMB      116             0.0000000000
     15459       122  POPC      H13R            5.8161284857       55.6889715618       39.2805915885  MEMB      116             0.0000000000
     15460       122  POPC      H13S            4.2658991623       54.7846022381       39.3635953789  MEMB      116             0.0000000000
     15461       122  POPC      C214            4.3649681473       56.5624407194       40.5889819037  MEMB      116             0.0000000000
     15462       122  POPC      H14R            3.2746385232       56.5304854878       40.7958021250  MEMB      116             0.0000000000
     15463       122  POPC      H14S            4.6424657949       57.6252912282       40.4590283824  MEMB      116             0.0000000000
     15464       122  POPC      C215            5.1217201229       55.9805871694       41.7864489841  MEMB      116             0.0000000000
     15465       122  POPC      H15R            5.0288988820       56.6511487095       42.6673174360  MEMB      116             0.0000000000
     15466       122  POPC      H15S            6.2016970275       55.9141561969       41.5298058466  MEMB      116             0.0000000000
     15467       122  POPC      C216            4.5972412502       54.5916253376       42.1561282503  MEMB      116             0.0000000000
     15468       122  POPC      H16R            4.5971549357       53.9406087727       41.2558021835  MEMB      116             0.0000000000
     15469       122  POPC      H16S            3.5393987678       54.6837554867       42.4918489671  MEMB      116             0.0000000000
     15470       122  POPC      C217            5.4318091445       53.8960676251       43.2299838631  MEMB      116             0.0000000000
     15471       122  POPC      H17R            4.7940438844       53.8239224097       44.1314446730  MEMB      116             0.0000000000
     15472       122  POPC      H17S            6.2996618438       54.5398100226       43.4965121574  MEMB      116             0.0000000000
     15473       122  POPC      C218            5.9330515430       52.5016769402       42.8384288805  MEMB      116             0.0000000000
     15474       122  POPC      H18R            6.6994484018       52.1490522098       43.5594468160  MEMB      116             0.0000000000
     15475       122  POPC      H18S            6.3924459934       52.5133286944       41.8316556041  MEMB      116             0.0000000000
     15476       122  POPC      H18T            5.1041075269       51.7676294809       42.8208272804  MEMB      116             0.0000000000
     15477       122  POPC      C33             5.3331002392       51.0212516764       28.4383251815  MEMB      116             0.0000000000
     15478       122  POPC      H3X             6.1213092326       51.7970357266       28.3740136695  MEMB      116             0.0000000000
     15479       122  POPC      H3Y             5.8006978569       50.1002796552       28.0537085210  MEMB      116             0.0000000000
     15480       122  POPC      C34             4.9532211683       50.7891545857       29.9088099727  MEMB      116             0.0000000000
     15481       122  POPC      H4X             4.0220059422       50.1775582141       29.9129257486  MEMB      116             0.0000000000
     15482       122  POPC      H4Y             4.7412112875       51.7739249336       30.3853803170  MEMB      116             0.0000000000
     15483       122  POPC      C35             5.9661279063       50.0117968353       30.7731594563  MEMB      116             0.0000000000
     15484       122  POPC      H5X             5.8651300242       48.9250875376       30.5400366494  MEMB      116             0.0000000000
     15485       122  POPC      H5Y             5.6858310362       50.1381941305       31.8435393690  MEMB      116             0.0000000000
     15486       122  POPC      C36             7.4460745488       50.3854206368       30.5910029991  MEMB      116             0.0000000000
     15487       122  POPC      H6X             7.7498278456       50.0642585200       29.5696787395  MEMB      116             0.0000000000
     15488       122  POPC      H6Y             8.0558267270       49.8003238402       31.3107079348  MEMB      116             0.0000000000
     15489       122  POPC      C37             7.7897699702       51.8746810823       30.7472646454  MEMB      116             0.0000000000
     15490       122  POPC      H7X             7.1212441369       52.4583021516       30.0886561475  MEMB      116             0.0000000000
     15491       122  POPC      H7Y             8.8286106840       52.0365794457       30.3810781253  MEMB      116             0.0000000000
     15492       122  POPC      C38             7.6838248494       52.4537391983       32.1690974129  MEMB      116             0.0000000000
     15493       122  POPC      H8X             6.6788258692       52.2450901064       32.5941608177  MEMB      116             0.0000000000
     15494       122  POPC      H8Y             7.7891047756       53.5610766798       32.0856912220  MEMB      116             0.0000000000
     15495       122  POPC      C39             8.7757258856       51.9341222094       33.1142913566  MEMB      116             0.0000000000
     15496       122  POPC      H9X             9.6063581612       51.5216431577       32.4943382942  MEMB      116             0.0000000000
     15497       122  POPC      H9Y             8.3457340905       51.1027227307       33.7039662451  MEMB      116             0.0000000000
     15498       122  POPC      C310            9.3887489715       52.9997377959       34.0411882072  MEMB      116             0.0000000000
     15499       122  POPC      H10X            9.7079941144       53.8594130900       33.4099712282  MEMB      116             0.0000000000
     15500       122  POPC      H10Y           10.3074981331       52.5881979968       34.5180079015  MEMB      116             0.0000000000
     15501       122  POPC      C311            8.4500527373       53.5115598265       35.1456207714  MEMB      116             0.0000000000
     15502       122  POPC      H11X            7.4092873628       53.5576731552       34.7670318015  MEMB      116             0.0000000000
     15503       122  POPC      H11Y            8.7579448418       54.5467132601       35.4121808034  MEMB      116             0.0000000000
     15504       122  POPC      C312            8.4987904117       52.6644425066       36.4273680451  MEMB      116             0.0000000000
     15505       122  POPC      H12X            9.5607620756       52.5675257342       36.7436416274  MEMB      116             0.0000000000
     15506       122  POPC      H12Y            8.1211396980       51.6531564095       36.1788064883  MEMB      116             0.0000000000
     15507       122  POPC      C313            7.6798869533       53.2658728698       37.5847262981  MEMB      116             0.0000000000
     15508       122  POPC      H13X            6.6181204132       52.9508578118       37.5016400203  MEMB      116             0.0000000000
     15509       122  POPC      H13Y            7.7118308731       54.3705350172       37.4659216180  MEMB      116             0.0000000000
     15510       122  POPC      C314            8.1990683991       52.9525065579       39.0017490733  MEMB      116             0.0000000000
     15511       122  POPC      H14X            9.3067310395       52.9255806071       38.9975552232  MEMB      116             0.0000000000
     15512       122  POPC      H14Y            7.8435675231       51.9523166688       39.3281771770  MEMB      116             0.0000000000
     15513       122  POPC      C315            7.7766686768       54.0167716606       40.0270815463  MEMB      116             0.0000000000
     15514       122  POPC      H15X            6.6978281674       53.8608535986       40.2471150216  MEMB      116             0.0000000000
     15515       122  POPC      H15Y            7.8737021747       55.0207600630       39.5563620462  MEMB      116             0.0000000000
     15516       122  POPC      C316            8.5846089095       54.0401407497       41.3308604275  MEMB      116             0.0000000000
     15517       122  POPC      H16X            9.6468452011       54.2916187745       41.1339181867  MEMB      116             0.0000000000
     15518       122  POPC      H16Y            8.5456985881       53.0608456275       41.8496462326  MEMB      116             0.0000000000
     15519       122  POPC      H16Z            8.1709771142       54.8039127326       42.0243078149  MEMB      116             0.0000000000
     15520       123  POPS      N              36.6145674625       64.1702557795       21.8073598846  MEMB      117             0.0000000000
     15521       123  POPS      HN1            36.4904173169       64.1235243554       20.7738692624  MEMB      117             0.0000000000
     15522       123  POPS      HN2            37.6236342710       64.2485577276       22.0155780860  MEMB      117             0.0000000000
     15523       123  POPS      HN3            36.1985237398       63.3361433076       22.2973240517  MEMB      117             0.0000000000
     15524       123  POPS      C12            35.9495839212       65.4115683706       22.3254715532  MEMB      117             0.0000000000
     15525       123  POPS      H12A           34.9419856195       65.4023309207       21.9487265128  MEMB      117             0.0000000000
     15526       123  POPS      C13            36.5482590618       66.7540020457       21.9031473727  MEMB      117             0.0000000000
     15527       123  POPS      O13A           37.5488139829       66.8111822358       21.1561211925  MEMB      117             0.0000000000
     15528       123  POPS      O13B           35.9538905404       67.7854337531       22.3081481367  MEMB      117             0.0000000000
     15529       123  POPS      C11            35.9192951140       65.4334400719       23.8613106321  MEMB      117             0.0000000000
     15530       123  POPS      H11A           35.4388438385       66.3618212532       24.2465584163  MEMB      117             0.0000000000
     15531       123  POPS      H11B           36.9646227999       65.4591456733       24.2231947162  MEMB      117             0.0000000000
     15532       123  POPS      P              35.7454540041       63.2331964282       25.3074560098  MEMB      117             0.0000000000
     15533       123  POPS      O13            35.9599085169       62.0751533532       24.4216296784  MEMB      117             0.0000000000
     15534       123  POPS      O14            34.9082965502       63.0744877056       26.5103955496  MEMB      117             0.0000000000
     15535       123  POPS      O12            35.1773764097       64.3284918930       24.3271125457  MEMB      117             0.0000000000
     15536       123  POPS      O11            37.1625686598       63.7848596921       25.7266079045  MEMB      117             0.0000000000
     15537       123  POPS      C1             38.3374334273       63.1941390962       25.1604198558  MEMB      117             0.0000000000
     15538       123  POPS      HA             38.2659597315       63.0958633341       24.0521428435  MEMB      117             0.0000000000
     15539       123  POPS      HB             38.4609725457       62.1610242069       25.5689212621  MEMB      117             0.0000000000
     15540       123  POPS      C2             39.6340076583       64.0017372174       25.4815670234  MEMB      117             0.0000000000
     15541       123  POPS      HS             40.4941076238       63.3329042391       25.2411956157  MEMB      117             0.0000000000
     15542       123  POPS      O21            39.6573312968       64.4466673537       26.8624441777  MEMB      117             0.0000000000
     15543       123  POPS      C21            39.9744271516       63.4377241778       27.6791527025  MEMB      117             0.0000000000
     15544       123  POPS      O22            40.4757014865       62.3940550810       27.3056762684  MEMB      117             0.0000000000
     15545       123  POPS      C22            39.7831532787       63.7857712474       29.1550652620  MEMB      117             0.0000000000
     15546       123  POPS      H2R            38.6947398351       63.8338498686       29.3552110422  MEMB      117             0.0000000000
     15547       123  POPS      H2S            40.2278417835       64.7817228787       29.3322028306  MEMB      117             0.0000000000
     15548       123  POPS      C3             39.8459373627       65.2423061156       24.5475904377  MEMB      117             0.0000000000
     15549       123  POPS      HX             39.7424536052       64.8985686829       23.4966479243  MEMB      117             0.0000000000
     15550       123  POPS      HY             40.9101933241       65.5324406850       24.6944286675  MEMB      117             0.0000000000
     15551       123  POPS      O31            38.9299711136       66.3323736862       24.7761473530  MEMB      117             0.0000000000
     15552       123  POPS      C31            39.4855672864       67.5390038200       24.9695547490  MEMB      117             0.0000000000
     15553       123  POPS      O32            40.6733175704       67.7817845501       24.8626965845  MEMB      117             0.0000000000
     15554       123  POPS      C32            38.4088043712       68.5192695096       25.4303419768  MEMB      117             0.0000000000
     15555       123  POPS      H2X            37.4914203058       68.4193502805       24.8205424733  MEMB      117             0.0000000000
     15556       123  POPS      H2Y            38.8364403411       69.5308332043       25.2506839365  MEMB      117             0.0000000000
     15557       123  POPS      C23            40.4504639261       62.7243609283       30.0820986736  MEMB      117             0.0000000000
     15558       123  POPS      H3R            41.5406356174       62.6669960700       29.8547400319  MEMB      117             0.0000000000
     15559       123  POPS      H3S            40.0155222925       61.7220521870       29.8540475565  MEMB      117             0.0000000000
     15560       123  POPS      C24            40.2954296018       62.9803013561       31.5948384422  MEMB      117             0.0000000000
     15561       123  POPS      H4R            40.7776226117       62.1329468232       32.1346869531  MEMB      117             0.0000000000
     15562       123  POPS      H4S            39.2170519700       62.9861315971       31.8653582671  MEMB      117             0.0000000000
     15563       123  POPS      C25            40.9512464207       64.2852466918       32.0735674633  MEMB      117             0.0000000000
     15564       123  POPS      H5R            40.5047909249       65.1423226966       31.5255269891  MEMB      117             0.0000000000
     15565       123  POPS      H5S            42.0344014147       64.2441747627       31.8189548590  MEMB      117             0.0000000000
     15566       123  POPS      C26            40.8028608885       64.5536563385       33.5826639298  MEMB      117             0.0000000000
     15567       123  POPS      H6R            41.7335605736       65.0346186479       33.9507021306  MEMB      117             0.0000000000
     15568       123  POPS      H6S            40.6931746681       63.5866623673       34.1138248678  MEMB      117             0.0000000000
     15569       123  POPS      C27            39.6049191868       65.4664346353       33.8992588927  MEMB      117             0.0000000000
     15570       123  POPS      H7R            38.7146318201       64.9723058144       33.4606642620  MEMB      117             0.0000000000
     15571       123  POPS      H7S            39.7228027471       66.4406867847       33.3785293071  MEMB      117             0.0000000000
     15572       123  POPS      C28            39.3295137532       65.7179683812       35.3954070825  MEMB      117             0.0000000000
     15573       123  POPS      H8R            39.2836470814       64.7318024634       35.9095809152  MEMB      117             0.0000000000
     15574       123  POPS      H8S            38.3274648283       66.1790917872       35.5087655390  MEMB      117             0.0000000000
     15575       123  POPS      C29            40.3675054552       66.5932432914       36.0422229218  MEMB      117             0.0000000000
     15576       123  POPS      H91            41.3485712278       66.1024256993       36.0940020081  MEMB      117             0.0000000000
     15577       123  POPS      C210           40.2336806956       67.8167679140       36.6083147670  MEMB      117             0.0000000000
     15578       123  POPS      H101           41.1360006249       68.2709933577       37.0406684279  MEMB      117             0.0000000000
     15579       123  POPS      C211           39.0079830575       68.6895729782       36.7711930404  MEMB      117             0.0000000000
     15580       123  POPS      H11R           38.2583020197       68.4888886261       35.9747624602  MEMB      117             0.0000000000
     15581       123  POPS      H11S           39.2967529943       69.7607912813       36.6773200407  MEMB      117             0.0000000000
     15582       123  POPS      C212           38.3380958671       68.4890342039       38.1521385382  MEMB      117             0.0000000000
     15583       123  POPS      H12R           37.5393787799       69.2475045787       38.3050665074  MEMB      117             0.0000000000
     15584       123  POPS      H12S           39.0928711214       68.6290129291       38.9581311495  MEMB      117             0.0000000000
     15585       123  POPS      C213           37.7199003634       67.0918802521       38.2476131361  MEMB      117             0.0000000000
     15586       123  POPS      H13R           38.4513671781       66.4013039152       37.7792506673  MEMB      117             0.0000000000
     15587       123  POPS      H13S           36.7908784834       67.0287691443       37.6448879909  MEMB      117             0.0000000000
     15588       123  POPS      C214           37.5104003175       66.4938309251       39.6433249067  MEMB      117             0.0000000000
     15589       123  POPS      H14R           36.6551610638       66.9649560323       40.1684327179  MEMB      117             0.0000000000
     15590       123  POPS      H14S           38.4191009548       66.6919419941       40.2461788842  MEMB      117             0.0000000000
     15591       123  POPS      C215           37.2817202368       64.9836849084       39.4486947269  MEMB      117             0.0000000000
     15592       123  POPS      H15R           37.7196172272       64.6915645984       38.4642163954  MEMB      117             0.0000000000
     15593       123  POPS      H15S           36.1884445869       64.8283697780       39.3568756724  MEMB      117             0.0000000000
     15594       123  POPS      C216           37.8676659597       63.9818247905       40.4602441815  MEMB      117             0.0000000000
     15595       123  POPS      H16R           38.0081773061       63.0101185326       39.9381533608  MEMB      117             0.0000000000
     15596       123  POPS      H16S           37.1253585905       63.8098311440       41.2674347587  MEMB      117             0.0000000000
     15597       123  POPS      C217           39.2148736350       64.3426221918       41.0841696998  MEMB      117             0.0000000000
     15598       123  POPS      H17R           39.5584975044       63.5057599848       41.7273778390  MEMB      117             0.0000000000
     15599       123  POPS      H17S           39.0209877367       65.2120315332       41.7370179716  MEMB      117             0.0000000000
     15600       123  POPS      C218           40.3289445238       64.7358050383       40.1212227989  MEMB      117             0.0000000000
     15601       123  POPS      H18R           39.9526090632       65.4996180729       39.4101726408  MEMB      117             0.0000000000
     15602       123  POPS      H18S           40.7217155420       63.8867233076       39.5352734859  MEMB      117             0.0000000000
     15603       123  POPS      H18T           41.1721093929       65.1710906204       40.6990020374  MEMB      117             0.0000000000
     15604       123  POPS      C33            38.0871008985       68.4030048635       26.9476248048  MEMB      117             0.0000000000
     15605       123  POPS      H3X            37.4736132643       69.2881171953       27.2350077699  MEMB      117             0.0000000000
     15606       123  POPS      H3Y            39.0314883788       68.4715544387       27.5254763405  MEMB      117             0.0000000000
     15607       123  POPS      C34            37.3112072222       67.1381613159       27.3409235109  MEMB      117             0.0000000000
     15608       123  POPS      H4X            37.8664672411       66.2318379800       27.0113775839  MEMB      117             0.0000000000
     15609       123  POPS      H4Y            36.3405772069       67.1289260429       26.7953302730  MEMB      117             0.0000000000
     15610       123  POPS      C35            37.0239075983       67.0042888621       28.8507032963  MEMB      117             0.0000000000
     15611       123  POPS      H5X            36.4651717222       67.9012333196       29.1963863249  MEMB      117             0.0000000000
     15612       123  POPS      H5Y            37.9825570986       66.9517214656       29.4135882781  MEMB      117             0.0000000000
     15613       123  POPS      C36            36.1761648957       65.7506990772       29.1305045676  MEMB      117             0.0000000000
     15614       123  POPS      H6X            36.7376986298       64.8429485271       28.8185690933  MEMB      117             0.0000000000
     15615       123  POPS      H6Y            35.2847037041       65.8053033997       28.4602538089  MEMB      117             0.0000000000
     15616       123  POPS      C37            35.6606533352       65.5835769720       30.5742260443  MEMB      117             0.0000000000
     15617       123  POPS      H7X            34.8960083064       64.7702611593       30.5446248641  MEMB      117             0.0000000000
     15618       123  POPS      H7Y            35.1578714749       66.5173917261       30.9047351748  MEMB      117             0.0000000000
     15619       123  POPS      C38            36.7090756661       65.1595946406       31.6138308001  MEMB      117             0.0000000000
     15620       123  POPS      H8X            37.4153152758       65.9923641408       31.8177341415  MEMB      117             0.0000000000
     15621       123  POPS      H8Y            37.2906737468       64.3252127866       31.1575781607  MEMB      117             0.0000000000
     15622       123  POPS      C39            36.0961650340       64.6320011061       32.9342231056  MEMB      117             0.0000000000
     15623       123  POPS      H9X            36.8083798564       63.8812894412       33.3430674845  MEMB      117             0.0000000000
     15624       123  POPS      H9Y            35.1482194511       64.0986331992       32.7217084832  MEMB      117             0.0000000000
     15625       123  POPS      C310           35.8680281754       65.7033645458       34.0171819871  MEMB      117             0.0000000000
     15626       123  POPS      H10X           35.1378414236       66.4536279665       33.6407013971  MEMB      117             0.0000000000
     15627       123  POPS      H10Y           36.8229482424       66.2479884940       34.1606336005  MEMB      117             0.0000000000
     15628       123  POPS      C311           35.3679419580       65.1829104666       35.3910265656  MEMB      117             0.0000000000
     15629       123  POPS      H11X           34.2706666083       65.0367815493       35.3302287450  MEMB      117             0.0000000000
     15630       123  POPS      H11Y           35.5242671773       65.9865607282       36.1450811648  MEMB      117             0.0000000000
     15631       123  POPS      C312           36.0059675765       63.8818418696       35.9313811325  MEMB      117             0.0000000000
     15632       123  POPS      H12X           37.0646159917       64.0912604194       36.1996722969  MEMB      117             0.0000000000
     15633       123  POPS      H12Y           35.9971680837       63.0863907741       35.1569182029  MEMB      117             0.0000000000
     15634       123  POPS      C313           35.2784245339       63.3237458841       37.1737652901  MEMB      117             0.0000000000
     15635       123  POPS      H13X           34.3093456250       62.8893748822       36.8787346171  MEMB      117             0.0000000000
     15636       123  POPS      H13Y           35.0366230864       64.1826357782       37.8296232715  MEMB      117             0.0000000000
     15637       123  POPS      C314           36.1029991886       62.2650943185       37.9369664896  MEMB      117             0.0000000000
     15638       123  POPS      H14X           37.1197736542       62.6808671445       38.0789977452  MEMB      117             0.0000000000
     15639       123  POPS      H14Y           36.2348938092       61.3736836112       37.2828046723  MEMB      117             0.0000000000
     15640       123  POPS      C315           35.5650564939       61.7782342580       39.3101358168  MEMB      117             0.0000000000
     15641       123  POPS      H15X           36.4318229311       61.6055217053       39.9872597783  MEMB      117             0.0000000000
     15642       123  POPS      H15Y           35.1354954307       60.7662266714       39.1774663381  MEMB      117             0.0000000000
     15643       123  POPS      C316           34.5408943338       62.6516112538       40.0556705967  MEMB      117             0.0000000000
     15644       123  POPS      H16X           33.8846600935       62.0126408746       40.6843052529  MEMB      117             0.0000000000
     15645       123  POPS      H16Y           33.8800646465       63.2105438709       39.3619396317  MEMB      117             0.0000000000
     15646       123  POPS      H16Z           35.0417832931       63.3759089391       40.7304594389  MEMB      117             0.0000000000
     15647       124  POPS      N               4.8781443659       14.8978151468       24.9255059340  MEMB      118             0.0000000000
     15648       124  POPS      HN1             3.9790323443       14.4217960852       24.6724788301  MEMB      118             0.0000000000
     15649       124  POPS      HN2             5.6782365127       14.2339884550       24.9580301823  MEMB      118             0.0000000000
     15650       124  POPS      HN3             4.7426173792       15.3382168351       25.8530371042  MEMB      118             0.0000000000
     15651       124  POPS      C12             5.1663126980       15.9116664565       23.8811959749  MEMB      118             0.0000000000
     15652       124  POPS      H12A            5.6284245015       16.7656648476       24.3536552275  MEMB      118             0.0000000000
     15653       124  POPS      C13             3.8228499276       16.3849471889       23.3033654293  MEMB      118             0.0000000000
     15654       124  POPS      O13A            2.8413052308       16.4621192665       24.0938952500  MEMB      118             0.0000000000
     15655       124  POPS      O13B            3.7591553834       16.6316914005       22.0818139127  MEMB      118             0.0000000000
     15656       124  POPS      C11             6.1562104887       15.3298967019       22.8325586479  MEMB      118             0.0000000000
     15657       124  POPS      H11A            6.3160368744       16.0956667303       22.0346914569  MEMB      118             0.0000000000
     15658       124  POPS      H11B            5.6874420331       14.4342671782       22.3640924774  MEMB      118             0.0000000000
     15659       124  POPS      P               8.5115669584       14.1201118217       22.7277360925  MEMB      118             0.0000000000
     15660       124  POPS      O13             9.8176140460       14.8053375976       22.6105370795  MEMB      118             0.0000000000
     15661       124  POPS      O14             7.9157660378       13.6142511524       21.4688634035  MEMB      118             0.0000000000
     15662       124  POPS      O12             7.4032290178       15.0107283231       23.4662529223  MEMB      118             0.0000000000
     15663       124  POPS      O11             8.6331074258       12.8887757674       23.7186503411  MEMB      118             0.0000000000
     15664       124  POPS      C1              7.5186330729       12.2456232120       24.3218950145  MEMB      118             0.0000000000
     15665       124  POPS      HA              7.4750175207       11.1988668025       23.9453794258  MEMB      118             0.0000000000
     15666       124  POPS      HB              6.5488170099       12.7231218096       24.0589922154  MEMB      118             0.0000000000
     15667       124  POPS      C2              7.6485573455       12.1998283384       25.8698329681  MEMB      118             0.0000000000
     15668       124  POPS      HS              6.7506067671       11.6566737818       26.2614823893  MEMB      118             0.0000000000
     15669       124  POPS      O21             7.8275576215       13.5202174070       26.4266385211  MEMB      118             0.0000000000
     15670       124  POPS      C21             6.8489502467       13.9159070913       27.2004751478  MEMB      118             0.0000000000
     15671       124  POPS      O22             5.7052887214       13.4894030975       27.1374873031  MEMB      118             0.0000000000
     15672       124  POPS      C22             7.2946359027       15.0404864164       28.1263767332  MEMB      118             0.0000000000
     15673       124  POPS      H2R             7.2920053251       15.9767623868       27.5346812750  MEMB      118             0.0000000000
     15674       124  POPS      H2S             8.3355628302       14.8478263169       28.4514689417  MEMB      118             0.0000000000
     15675       124  POPS      C3              8.8618279342       11.3537064848       26.3185144326  MEMB      118             0.0000000000
     15676       124  POPS      HX              9.7960156153       11.8866792052       26.0140312674  MEMB      118             0.0000000000
     15677       124  POPS      HY              8.8254141244       10.3911051610       25.7629267669  MEMB      118             0.0000000000
     15678       124  POPS      O31             8.7744030158       11.0706774448       27.7352424227  MEMB      118             0.0000000000
     15679       124  POPS      C31             9.4431549016       11.9113118108       28.5359430447  MEMB      118             0.0000000000
     15680       124  POPS      O32            10.1635977574       12.8149649113       28.1586715598  MEMB      118             0.0000000000
     15681       124  POPS      C32             9.2114975695       11.5193794240       30.0052192813  MEMB      118             0.0000000000
     15682       124  POPS      H2X             9.5381775907       10.4654033291       30.1162124525  MEMB      118             0.0000000000
     15683       124  POPS      H2Y             8.1231085173       11.5714946592       30.2047331202  MEMB      118             0.0000000000
     15684       124  POPS      C23             6.3606433004       15.2051783996       29.3576348174  MEMB      118             0.0000000000
     15685       124  POPS      H3R             6.4243914517       14.3096290021       30.0179826924  MEMB      118             0.0000000000
     15686       124  POPS      H3S             5.3027109827       15.2860946069       29.0179280165  MEMB      118             0.0000000000
     15687       124  POPS      C24             6.7170651524       16.4595192907       30.1727777275  MEMB      118             0.0000000000
     15688       124  POPS      H4R             6.7526392971       17.3177883165       29.4650921062  MEMB      118             0.0000000000
     15689       124  POPS      H4S             7.7356972302       16.3411729591       30.6043495136  MEMB      118             0.0000000000
     15690       124  POPS      C25             5.7219192183       16.8094011430       31.2958368449  MEMB      118             0.0000000000
     15691       124  POPS      H5R             4.7307559576       16.3508887249       31.0835549367  MEMB      118             0.0000000000
     15692       124  POPS      H5S             5.5783061498       17.9145693359       31.3175942601  MEMB      118             0.0000000000
     15693       124  POPS      C26             6.1990562866       16.3816019314       32.6941978624  MEMB      118             0.0000000000
     15694       124  POPS      H6R             7.1426050524       16.9135682973       32.9500440168  MEMB      118             0.0000000000
     15695       124  POPS      H6S             6.4280440365       15.2935311003       32.6553820421  MEMB      118             0.0000000000
     15696       124  POPS      C27             5.1478669158       16.6532155983       33.7883570534  MEMB      118             0.0000000000
     15697       124  POPS      H7R             4.1964109460       16.1534584008       33.4977749227  MEMB      118             0.0000000000
     15698       124  POPS      H7S             4.9503907968       17.7492414093       33.8312128228  MEMB      118             0.0000000000
     15699       124  POPS      C28             5.5471009928       16.1713961383       35.2001688605  MEMB      118             0.0000000000
     15700       124  POPS      H8R             4.6781689594       16.3101500322       35.8817494906  MEMB      118             0.0000000000
     15701       124  POPS      H8S             6.3489775049       16.8403187543       35.5848777140  MEMB      118             0.0000000000
     15702       124  POPS      C29             6.0436654615       14.7464663219       35.2236784316  MEMB      118             0.0000000000
     15703       124  POPS      H91             7.1161121093       14.6471849062       35.0080448036  MEMB      118             0.0000000000
     15704       124  POPS      C210            5.3391151879       13.6248870628       35.4588353011  MEMB      118             0.0000000000
     15705       124  POPS      H101            5.8804899815       12.6668963944       35.4745972040  MEMB      118             0.0000000000
     15706       124  POPS      C211            3.8663154558       13.5174184868       35.7607846145  MEMB      118             0.0000000000
     15707       124  POPS      H11R            3.3296336978       13.1444431457       34.8602032997  MEMB      118             0.0000000000
     15708       124  POPS      H11S            3.4225754999       14.5068573572       36.0045675406  MEMB      118             0.0000000000
     15709       124  POPS      C212            3.5784559374       12.5354011976       36.9172950131  MEMB      118             0.0000000000
     15710       124  POPS      H12R            3.9374346117       11.5205698153       36.6320380932  MEMB      118             0.0000000000
     15711       124  POPS      H12S            2.4746838081       12.4670617502       37.0530684439  MEMB      118             0.0000000000
     15712       124  POPS      C213            4.2236713858       12.9200857772       38.2604180113  MEMB      118             0.0000000000
     15713       124  POPS      H13R            5.3259263752       12.9919501686       38.1391177160  MEMB      118             0.0000000000
     15714       124  POPS      H13S            4.0240312952       12.1133255410       39.0018406955  MEMB      118             0.0000000000
     15715       124  POPS      C214            3.6881030351       14.2343423164       38.8360868987  MEMB      118             0.0000000000
     15716       124  POPS      H14R            2.6081482905       14.0851503315       39.0451577275  MEMB      118             0.0000000000
     15717       124  POPS      H14S            3.7664917747       15.0518243178       38.0882543654  MEMB      118             0.0000000000
     15718       124  POPS      C215            4.3905043784       14.6581040486       40.1334662324  MEMB      118             0.0000000000
     15719       124  POPS      H15R            4.3797028207       13.8040775123       40.8473018026  MEMB      118             0.0000000000
     15720       124  POPS      H15S            3.7998457152       15.4773743862       40.5965224031  MEMB      118             0.0000000000
     15721       124  POPS      C216            5.8459120824       15.1318159003       39.9576650325  MEMB      118             0.0000000000
     15722       124  POPS      H16R            6.4747057840       14.2367705998       39.8178718578  MEMB      118             0.0000000000
     15723       124  POPS      H16S            6.1785264483       15.6204628997       40.8994222312  MEMB      118             0.0000000000
     15724       124  POPS      C217            6.1074708341       16.0592162603       38.7586390901  MEMB      118             0.0000000000
     15725       124  POPS      H17R            5.2405832998       16.7393996149       38.6326059698  MEMB      118             0.0000000000
     15726       124  POPS      H17S            6.1614186342       15.4289985726       37.8435412809  MEMB      118             0.0000000000
     15727       124  POPS      C218            7.3842046552       16.9011421040       38.8616576784  MEMB      118             0.0000000000
     15728       124  POPS      H18R            7.2858380410       17.8288681749       38.2599983860  MEMB      118             0.0000000000
     15729       124  POPS      H18S            8.2594253181       16.3365767979       38.4813022521  MEMB      118             0.0000000000
     15730       124  POPS      H18T            7.5853565260       17.1913959509       39.9154493499  MEMB      118             0.0000000000
     15731       124  POPS      C33             9.9852106790       12.3909211606       31.0303373789  MEMB      118             0.0000000000
     15732       124  POPS      H3X            11.0459138047       12.5089498296       30.7128671490  MEMB      118             0.0000000000
     15733       124  POPS      H3Y             9.9949927645       11.8630115699       32.0118689950  MEMB      118             0.0000000000
     15734       124  POPS      C34             9.3421627199       13.7692406405       31.2519007154  MEMB      118             0.0000000000
     15735       124  POPS      H4X             8.4051777441       13.6637112071       31.8412342858  MEMB      118             0.0000000000
     15736       124  POPS      H4Y             9.0587001656       14.1801596003       30.2605773702  MEMB      118             0.0000000000
     15737       124  POPS      C35            10.2706657061       14.8031710135       31.9114142671  MEMB      118             0.0000000000
     15738       124  POPS      H5X             9.7489744930       15.7851257940       31.9708257228  MEMB      118             0.0000000000
     15739       124  POPS      H5Y            11.1526375984       14.9398382886       31.2406721916  MEMB      118             0.0000000000
     15740       124  POPS      C36            10.7884102555       14.4190360150       33.3079386116  MEMB      118             0.0000000000
     15741       124  POPS      H6X            11.5563897303       15.1696288199       33.6026165480  MEMB      118             0.0000000000
     15742       124  POPS      H6Y            11.3002332051       13.4340289839       33.2471596600  MEMB      118             0.0000000000
     15743       124  POPS      C37             9.7296095582       14.3732840218       34.4297223852  MEMB      118             0.0000000000
     15744       124  POPS      H7X             8.8846566771       13.7195603866       34.1256508922  MEMB      118             0.0000000000
     15745       124  POPS      H7Y             9.3323585644       15.3995703593       34.5924954571  MEMB      118             0.0000000000
     15746       124  POPS      C38            10.3489393216       13.8268962050       35.7317687375  MEMB      118             0.0000000000
     15747       124  POPS      H8X            11.2801796688       14.4061846533       35.9204823755  MEMB      118             0.0000000000
     15748       124  POPS      H8Y            10.6379821421       12.7785447405       35.5446160182  MEMB      118             0.0000000000
     15749       124  POPS      C39             9.4754790122       13.8384033918       37.0012678115  MEMB      118             0.0000000000
     15750       124  POPS      H9X             8.8806584949       14.7791828987       36.9800994918  MEMB      118             0.0000000000
     15751       124  POPS      H9Y            10.1189928604       13.8805876646       37.9079795264  MEMB      118             0.0000000000
     15752       124  POPS      C310            8.5127773691       12.6335310761       37.1125143584  MEMB      118             0.0000000000
     15753       124  POPS      H10X            8.2751877775       12.3021874594       36.0758098065  MEMB      118             0.0000000000
     15754       124  POPS      H10Y            7.5663711140       13.0040127714       37.5660262378  MEMB      118             0.0000000000
     15755       124  POPS      C311            8.9618170772       11.3926252704       37.9293006723  MEMB      118             0.0000000000
     15756       124  POPS      H11X            9.7790635642       10.8766157381       37.3962005197  MEMB      118             0.0000000000
     15757       124  POPS      H11Y            8.1293995894       10.6545657923       37.9323506764  MEMB      118             0.0000000000
     15758       124  POPS      C312            9.3701061789       11.6114134948       39.4017326545  MEMB      118             0.0000000000
     15759       124  POPS      H12X           10.1904996495       12.3527333165       39.4803110357  MEMB      118             0.0000000000
     15760       124  POPS      H12Y            9.7654331852       10.6410504399       39.7707331384  MEMB      118             0.0000000000
     15761       124  POPS      C313            8.1959927308       11.9848845044       40.3174786723  MEMB      118             0.0000000000
     15762       124  POPS      H13X            7.6818975722       11.0481762917       40.6317322435  MEMB      118             0.0000000000
     15763       124  POPS      H13Y            7.4632370215       12.5503752269       39.7136498112  MEMB      118             0.0000000000
     15764       124  POPS      C314            8.5550651057       12.8068248812       41.5721070340  MEMB      118             0.0000000000
     15765       124  POPS      H14X            9.3467251434       12.3197747729       42.1674732426  MEMB      118             0.0000000000
     15766       124  POPS      H14Y            7.6472295686       12.8018497052       42.2227026347  MEMB      118             0.0000000000
     15767       124  POPS      C315            8.9131194640       14.2799953887       41.2915845154  MEMB      118             0.0000000000
     15768       124  POPS      H15X            8.4127736168       14.8986565141       42.0735163695  MEMB      118             0.0000000000
     15769       124  POPS      H15Y            8.4771495075       14.5668716271       40.3109548750  MEMB      118             0.0000000000
     15770       124  POPS      C316           10.4024698928       14.6470446307       41.2715413379  MEMB      118             0.0000000000
     15771       124  POPS      H16X           10.5328099548       15.7322327570       41.4818224673  MEMB      118             0.0000000000
     15772       124  POPS      H16Y           10.8391334250       14.4361651049       40.2702811462  MEMB      118             0.0000000000
     15773       124  POPS      H16Z           10.9688653132       14.0727698936       42.0328765069  MEMB      118             0.0000000000
     15774       125  POPC      N              61.3122331358       52.0763268682       22.7387448176  MEMB      119             0.0000000000
     15775       125  POPC      C12            60.1418879366       51.8780582903       21.7910356708  MEMB      119             0.0000000000
     15776       125  POPC      H12A           60.1615140810       50.8695510303       21.3916532424  MEMB      119             0.0000000000
     15777       125  POPC      H12B           60.2600324396       52.5249679079       20.9344666663  MEMB      119             0.0000000000
     15778       125  POPC      C13            61.2370811857       51.1116377237       23.8881521202  MEMB      119             0.0000000000
     15779       125  POPC      H13A           62.1707741889       51.1178733877       24.4532085977  MEMB      119             0.0000000000
     15780       125  POPC      H13B           60.4065606243       51.3530037661       24.5443888759  MEMB      119             0.0000000000
     15781       125  POPC      H13C           61.1342509054       50.0940468541       23.5260643517  MEMB      119             0.0000000000
     15782       125  POPC      C14            62.6291446866       51.8724205780       22.0734159752  MEMB      119             0.0000000000
     15783       125  POPC      H14A           63.4233991538       51.7995005626       22.8293389927  MEMB      119             0.0000000000
     15784       125  POPC      H14B           62.6755077363       50.9332101372       21.5436122344  MEMB      119             0.0000000000
     15785       125  POPC      H14C           62.8854546804       52.6952739716       21.4145401922  MEMB      119             0.0000000000
     15786       125  POPC      C15            61.3537900308       53.4672289322       23.2605904137  MEMB      119             0.0000000000
     15787       125  POPC      H15A           61.5022991861       54.2150578763       22.4905535640  MEMB      119             0.0000000000
     15788       125  POPC      H15B           62.1200970159       53.5810123398       24.0101142725  MEMB      119             0.0000000000
     15789       125  POPC      H15C           60.3878065392       53.6957470119       23.7229237242  MEMB      119             0.0000000000
     15790       125  POPC      C11            58.7226767973       52.1080799451       22.3661642433  MEMB      119             0.0000000000
     15791       125  POPC      H11A           58.5222710969       51.3104343880       23.1241290411  MEMB      119             0.0000000000
     15792       125  POPC      H11B           57.9864834434       51.9803003114       21.5456691783  MEMB      119             0.0000000000
     15793       125  POPC      P              57.3627318143       53.6689927044       23.8978374873  MEMB      119             0.0000000000
     15794       125  POPC      O13            57.5762360550       52.9207599241       25.1502786459  MEMB      119             0.0000000000
     15795       125  POPC      O14            56.0954987659       53.5151854839       23.1522778144  MEMB      119             0.0000000000
     15796       125  POPC      O12            58.5759320783       53.4220258856       22.8971956269  MEMB      119             0.0000000000
     15797       125  POPC      O11            57.4523212975       55.1965255694       24.1457428910  MEMB      119             0.0000000000
     15798       125  POPC      C1             58.6136414791       55.9523968904       23.8966269579  MEMB      119             0.0000000000
     15799       125  POPC      HA             58.2067633389       56.9559545997       23.7184117071  MEMB      119             0.0000000000
     15800       125  POPC      HB             59.1719885702       55.6553491458       22.9813582396  MEMB      119             0.0000000000
     15801       125  POPC      C2             59.5412860935       56.0131602620       25.1320977294  MEMB      119             0.0000000000
     15802       125  POPC      HS             60.3837467883       56.7097641869       24.9081173658  MEMB      119             0.0000000000
     15803       125  POPC      O21            60.0423848197       54.6875207986       25.4002954333  MEMB      119             0.0000000000
     15804       125  POPC      C21            60.5106282154       54.5193156636       26.6199059199  MEMB      119             0.0000000000
     15805       125  POPC      O22            60.9300275771       55.3959876512       27.3501719790  MEMB      119             0.0000000000
     15806       125  POPC      C22            60.5314839898       53.0595798010       27.0252882883  MEMB      119             0.0000000000
     15807       125  POPC      H2R            61.3993359365       52.5672124938       26.5447467099  MEMB      119             0.0000000000
     15808       125  POPC      H2S            59.5924510476       52.5712634340       26.6872299374  MEMB      119             0.0000000000
     15809       125  POPC      C3             58.7260667425       56.6088431607       26.3142080993  MEMB      119             0.0000000000
     15810       125  POPC      HX             58.0384524064       57.3342257889       25.8652014641  MEMB      119             0.0000000000
     15811       125  POPC      HY             59.4303290706       57.1524724554       26.9911831952  MEMB      119             0.0000000000
     15812       125  POPC      O31            57.9318212321       55.6157642911       26.9757040515  MEMB      119             0.0000000000
     15813       125  POPC      C31            57.5742744664       55.9709658181       28.1832751626  MEMB      119             0.0000000000
     15814       125  POPC      O32            57.8619705709       57.0108858900       28.7435338885  MEMB      119             0.0000000000
     15815       125  POPC      C32            56.7066666133       54.8755035790       28.7746816698  MEMB      119             0.0000000000
     15816       125  POPC      H2X            56.8587860362       53.9557959046       28.1643807007  MEMB      119             0.0000000000
     15817       125  POPC      H2Y            55.6453519511       55.1792901998       28.6862491839  MEMB      119             0.0000000000
     15818       125  POPC      C23            60.6634310585       52.9891016854       28.5591350181  MEMB      119             0.0000000000
     15819       125  POPC      H3R            59.7061314132       53.3587575504       28.9973839712  MEMB      119             0.0000000000
     15820       125  POPC      H3S            61.4598049373       53.6604461440       28.9570424931  MEMB      119             0.0000000000
     15821       125  POPC      C24            60.9406594502       51.5814045975       29.0837722245  MEMB      119             0.0000000000
     15822       125  POPC      H4R            62.0327305501       51.4396399933       29.2540281023  MEMB      119             0.0000000000
     15823       125  POPC      H4S            60.6167673863       50.8244815552       28.3329893287  MEMB      119             0.0000000000
     15824       125  POPC      C25            60.1641883708       51.3705416928       30.3833874957  MEMB      119             0.0000000000
     15825       125  POPC      H5R            59.0830204906       51.4460130276       30.1220538488  MEMB      119             0.0000000000
     15826       125  POPC      H5S            60.4152129461       52.1874958773       31.0970227985  MEMB      119             0.0000000000
     15827       125  POPC      C26            60.4073838192       50.0163364155       31.0511515811  MEMB      119             0.0000000000
     15828       125  POPC      H6R            61.4136958103       49.9895729761       31.5208071301  MEMB      119             0.0000000000
     15829       125  POPC      H6S            60.3816760744       49.2533372528       30.2440018531  MEMB      119             0.0000000000
     15830       125  POPC      C27            59.3151990620       49.6559881561       32.0734420830  MEMB      119             0.0000000000
     15831       125  POPC      H7R            59.4482776464       48.6117574654       32.4136404270  MEMB      119             0.0000000000
     15832       125  POPC      H7S            58.3356321940       49.6912406061       31.5454476309  MEMB      119             0.0000000000
     15833       125  POPC      C28            59.2377494642       50.5817140529       33.3008523816  MEMB      119             0.0000000000
     15834       125  POPC      H8R            58.2432280966       50.4267317272       33.7631848983  MEMB      119             0.0000000000
     15835       125  POPC      H8S            59.2776561212       51.6307027498       32.9681581194  MEMB      119             0.0000000000
     15836       125  POPC      C29            60.2649740808       50.3358762172       34.3571329690  MEMB      119             0.0000000000
     15837       125  POPC      H91            60.1014183355       49.4119675693       34.9186334459  MEMB      119             0.0000000000
     15838       125  POPC      C210           61.2701433399       51.1481720765       34.7072306481  MEMB      119             0.0000000000
     15839       125  POPC      H101           61.9326866967       50.8345964075       35.5264801879  MEMB      119             0.0000000000
     15840       125  POPC      C211           61.5929194781       52.4948049113       34.1135890286  MEMB      119             0.0000000000
     15841       125  POPC      H11R           60.8513931537       52.8491443212       33.3652827185  MEMB      119             0.0000000000
     15842       125  POPC      H11S           62.5682093021       52.4418140835       33.5786247939  MEMB      119             0.0000000000
     15843       125  POPC      C212           61.6834514941       53.5526162536       35.2212883536  MEMB      119             0.0000000000
     15844       125  POPC      H12R           62.2923769989       54.4012706218       34.8366790613  MEMB      119             0.0000000000
     15845       125  POPC      H12S           62.2007596644       53.1767073499       36.1254496300  MEMB      119             0.0000000000
     15846       125  POPC      C213           60.3304467735       54.0863338161       35.6839256267  MEMB      119             0.0000000000
     15847       125  POPC      H13R           59.7329460438       53.2725880764       36.1475148875  MEMB      119             0.0000000000
     15848       125  POPC      H13S           59.7855302662       54.4629912657       34.7893034442  MEMB      119             0.0000000000
     15849       125  POPC      C214           60.5468730656       55.2199503569       36.6824448452  MEMB      119             0.0000000000
     15850       125  POPC      H14R           61.5027194073       55.7103592762       36.3773065035  MEMB      119             0.0000000000
     15851       125  POPC      H14S           60.6967762916       54.8306678190       37.7135795393  MEMB      119             0.0000000000
     15852       125  POPC      C215           59.4685058662       56.3009596644       36.6523005095  MEMB      119             0.0000000000
     15853       125  POPC      H15R           58.7326195639       56.1150045475       37.4640274216  MEMB      119             0.0000000000
     15854       125  POPC      H15S           58.9363074308       56.3071981752       35.6743300090  MEMB      119             0.0000000000
     15855       125  POPC      C216           60.1169033134       57.6592492357       36.8732502310  MEMB      119             0.0000000000
     15856       125  POPC      H16R           60.8670665748       57.8552608585       36.0719694628  MEMB      119             0.0000000000
     15857       125  POPC      H16S           60.6436723332       57.6145376166       37.8527511201  MEMB      119             0.0000000000
     15858       125  POPC      C217           59.1363059736       58.8134025404       36.9395780281  MEMB      119             0.0000000000
     15859       125  POPC      H17R           58.3419184692       58.5671807020       37.6721336973  MEMB      119             0.0000000000
     15860       125  POPC      H17S           58.6565344752       58.9453921819       35.9497350972  MEMB      119             0.0000000000
     15861       125  POPC      C218           59.8305233632       60.0937555469       37.3759634209  MEMB      119             0.0000000000
     15862       125  POPC      H18R           59.0962487216       60.8640820661       37.6750313552  MEMB      119             0.0000000000
     15863       125  POPC      H18S           60.4648092623       60.4995226487       36.5605809222  MEMB      119             0.0000000000
     15864       125  POPC      H18T           60.4750438936       59.9114490687       38.2619419317  MEMB      119             0.0000000000
     15865       125  POPC      C33            57.0661418570       54.5803124210       30.2417160921  MEMB      119             0.0000000000
     15866       125  POPC      H3X            56.7048931225       55.3798156271       30.9240928390  MEMB      119             0.0000000000
     15867       125  POPC      H3Y            58.1749689195       54.5188886839       30.3459145455  MEMB      119             0.0000000000
     15868       125  POPC      C34            56.4764625983       53.2294429604       30.6377350402  MEMB      119             0.0000000000
     15869       125  POPC      H4X            56.6138794698       52.5368916651       29.7711860953  MEMB      119             0.0000000000
     15870       125  POPC      H4Y            55.3918160346       53.3342737164       30.8459355120  MEMB      119             0.0000000000
     15871       125  POPC      C35            57.1999020451       52.5847819679       31.8017545532  MEMB      119             0.0000000000
     15872       125  POPC      H5X            58.2832806900       52.7242567235       31.6015830524  MEMB      119             0.0000000000
     15873       125  POPC      H5Y            56.9834795533       51.4926301010       31.8335047043  MEMB      119             0.0000000000
     15874       125  POPC      C36            56.8999293157       53.1923391385       33.1622740378  MEMB      119             0.0000000000
     15875       125  POPC      H6X            56.4490609986       54.2010681848       33.0529545289  MEMB      119             0.0000000000
     15876       125  POPC      H6Y            57.8816242778       53.3225679904       33.6693271860  MEMB      119             0.0000000000
     15877       125  POPC      C37            56.0032874254       52.2889173485       34.0166842372  MEMB      119             0.0000000000
     15878       125  POPC      H7X            56.4783685039       51.3051672801       34.2013429400  MEMB      119             0.0000000000
     15879       125  POPC      H7Y            55.0535642135       52.1028106256       33.4694674235  MEMB      119             0.0000000000
     15880       125  POPC      C38            55.6904748188       52.9377223046       35.3532041716  MEMB      119             0.0000000000
     15881       125  POPC      H8X            54.9443928688       52.3449883279       35.9278988800  MEMB      119             0.0000000000
     15882       125  POPC      H8Y            55.2664916193       53.9346545879       35.1167172628  MEMB      119             0.0000000000
     15883       125  POPC      C39            56.8977799303       53.2389572013       36.2222220702  MEMB      119             0.0000000000
     15884       125  POPC      H9X            57.7182237281       53.6833407899       35.6261586103  MEMB      119             0.0000000000
     15885       125  POPC      H9Y            57.2920758643       52.3050474094       36.6788745411  MEMB      119             0.0000000000
     15886       125  POPC      C310           56.5042036256       54.2789739662       37.2633602810  MEMB      119             0.0000000000
     15887       125  POPC      H10X           55.4026187669       54.4448287300       37.2647104019  MEMB      119             0.0000000000
     15888       125  POPC      H10Y           56.9638625044       55.2444460074       36.9710725697  MEMB      119             0.0000000000
     15889       125  POPC      C311           56.9206550621       53.8437523666       38.6549834839  MEMB      119             0.0000000000
     15890       125  POPC      H11X           56.9087671479       54.7126316659       39.3355771692  MEMB      119             0.0000000000
     15891       125  POPC      H11Y           57.9715483620       53.4832460154       38.6013038127  MEMB      119             0.0000000000
     15892       125  POPC      C312           55.9722319197       52.7602493289       39.1840852733  MEMB      119             0.0000000000
     15893       125  POPC      H12X           55.9718801275       51.9130435442       38.4627643790  MEMB      119             0.0000000000
     15894       125  POPC      H12Y           54.9352661293       53.1691923233       39.2107586918  MEMB      119             0.0000000000
     15895       125  POPC      C313           56.3352783199       52.2196376370       40.5701466995  MEMB      119             0.0000000000
     15896       125  POPC      H13X           56.0206761861       51.1548338299       40.6131172278  MEMB      119             0.0000000000
     15897       125  POPC      H13Y           55.7674111475       52.7790713291       41.3462337569  MEMB      119             0.0000000000
     15898       125  POPC      C314           57.8263785288       52.2945528812       40.8970646960  MEMB      119             0.0000000000
     15899       125  POPC      H14X           58.1764986786       53.3497921420       40.8132012826  MEMB      119             0.0000000000
     15900       125  POPC      H14Y           58.3983476863       51.6758556538       40.1697967045  MEMB      119             0.0000000000
     15901       125  POPC      C315           58.1418454605       51.8470942053       42.3189258744  MEMB      119             0.0000000000
     15902       125  POPC      H15X           57.9052510935       50.7666753663       42.4449487887  MEMB      119             0.0000000000
     15903       125  POPC      H15Y           57.5031439457       52.4262703739       43.0224370680  MEMB      119             0.0000000000
     15904       125  POPC      C316           59.6016143390       52.1155472838       42.6414537674  MEMB      119             0.0000000000
     15905       125  POPC      H16X           60.2415620500       51.6818370732       41.8439966540  MEMB      119             0.0000000000
     15906       125  POPC      H16Y           59.8890348900       51.6783564210       43.6213936941  MEMB      119             0.0000000000
     15907       125  POPC      H16Z           59.8013588375       53.2066347501       42.6608820020  MEMB      119             0.0000000000
     15908       126  POPS      N              64.4496607824       15.6444880760       24.1226233868  MEMB      120             0.0000000000
     15909       126  POPS      HN1            64.4568257602       14.9168118991       23.3740683736  MEMB      120             0.0000000000
     15910       126  POPS      HN2            65.3388101554       15.5791521679       24.6374407696  MEMB      120             0.0000000000
     15911       126  POPS      HN3            63.6574665596       15.3845768121       24.7614216850  MEMB      120             0.0000000000
     15912       126  POPS      C12            64.0426555099       17.0180771569       23.6721651987  MEMB      120             0.0000000000
     15913       126  POPS      H12A           64.6676084319       17.7267255894       24.1861282005  MEMB      120             0.0000000000
     15914       126  POPS      C13            62.5763764986       17.2846707604       24.1098510169  MEMB      120             0.0000000000
     15915       126  POPS      O13A           61.9984322448       16.3723764410       24.7542329749  MEMB      120             0.0000000000
     15916       126  POPS      O13B           62.0062799672       18.3697042531       23.8504738986  MEMB      120             0.0000000000
     15917       126  POPS      C11            64.2135165644       17.2151211554       22.1343145813  MEMB      120             0.0000000000
     15918       126  POPS      H11A           63.4841137955       16.5505739509       21.6128449164  MEMB      120             0.0000000000
     15919       126  POPS      H11B           65.2368238550       16.8777817044       21.8367736509  MEMB      120             0.0000000000
     15920       126  POPS      P              65.1086431556       19.6432778373       21.5829769705  MEMB      120             0.0000000000
     15921       126  POPS      O13            64.6003010227       20.8592129779       20.8813388694  MEMB      120             0.0000000000
     15922       126  POPS      O14            66.3352478005       19.0042766895       21.0779050696  MEMB      120             0.0000000000
     15923       126  POPS      O12            63.9665763868       18.5750643428       21.7369599677  MEMB      120             0.0000000000
     15924       126  POPS      O11            65.4377860827       20.0444124642       23.0734234437  MEMB      120             0.0000000000
     15925       126  POPS      C1             64.5105488148       20.5927819257       23.9919248152  MEMB      120             0.0000000000
     15926       126  POPS      HA             63.6310174793       19.9363647592       24.1306572168  MEMB      120             0.0000000000
     15927       126  POPS      HB             64.1458253766       21.5732049281       23.6237862128  MEMB      120             0.0000000000
     15928       126  POPS      C2             65.1897289911       20.7707790073       25.3722054617  MEMB      120             0.0000000000
     15929       126  POPS      HS             66.1787738632       21.2549625423       25.1913463547  MEMB      120             0.0000000000
     15930       126  POPS      O21            65.3242157325       19.5046374609       26.0427937545  MEMB      120             0.0000000000
     15931       126  POPS      C21            66.4413069945       18.8460799651       25.8926902007  MEMB      120             0.0000000000
     15932       126  POPS      O22            67.3565105574       19.1139574848       25.1449221587  MEMB      120             0.0000000000
     15933       126  POPS      C22            66.5214231535       17.7676269348       26.9821579017  MEMB      120             0.0000000000
     15934       126  POPS      H2R            67.5667548094       17.3941250891       26.9992934220  MEMB      120             0.0000000000
     15935       126  POPS      H2S            65.8599325818       16.9255408842       26.7060536093  MEMB      120             0.0000000000
     15936       126  POPS      C3             64.3687304952       21.6898219866       26.3226915922  MEMB      120             0.0000000000
     15937       126  POPS      HX             64.1221459864       22.6500146452       25.8297189985  MEMB      120             0.0000000000
     15938       126  POPS      HY             65.0154850633       21.9218908177       27.1935239679  MEMB      120             0.0000000000
     15939       126  POPS      O31            63.2227877805       20.9838114434       26.8092960749  MEMB      120             0.0000000000
     15940       126  POPS      C31            62.0127274991       21.2607254768       26.3503535211  MEMB      120             0.0000000000
     15941       126  POPS      O32            61.6516865710       22.3085169475       25.8396235337  MEMB      120             0.0000000000
     15942       126  POPS      C32            61.1545889388       20.0171171197       26.4454560894  MEMB      120             0.0000000000
     15943       126  POPS      H2X            61.8012425598       19.1163264461       26.4917709900  MEMB      120             0.0000000000
     15944       126  POPS      H2Y            60.5628747130       19.9514318012       25.5053675307  MEMB      120             0.0000000000
     15945       126  POPS      C23            66.1189789454       18.2855857416       28.3909872664  MEMB      120             0.0000000000
     15946       126  POPS      H3R            65.0115674757       18.4096580848       28.4179459481  MEMB      120             0.0000000000
     15947       126  POPS      H3S            66.5612624888       19.2882381547       28.5885154581  MEMB      120             0.0000000000
     15948       126  POPS      C24            66.5599699711       17.3338619741       29.5155551090  MEMB      120             0.0000000000
     15949       126  POPS      H4R            67.6246725386       17.5334092062       29.7744237188  MEMB      120             0.0000000000
     15950       126  POPS      H4S            66.4992095474       16.2866106077       29.1407763030  MEMB      120             0.0000000000
     15951       126  POPS      C25            65.6948690748       17.4311108480       30.7853393081  MEMB      120             0.0000000000
     15952       126  POPS      H5R            66.0435169735       16.6653007425       31.5163120777  MEMB      120             0.0000000000
     15953       126  POPS      H5S            64.6413825850       17.1921447757       30.5153403963  MEMB      120             0.0000000000
     15954       126  POPS      C26            65.7253137747       18.8015644862       31.4878148850  MEMB      120             0.0000000000
     15955       126  POPS      H6R            65.4523594306       19.6111993746       30.7743638569  MEMB      120             0.0000000000
     15956       126  POPS      H6S            66.7645230555       19.0021973237       31.8307753915  MEMB      120             0.0000000000
     15957       126  POPS      C27            64.7652694205       18.8536886503       32.6921379892  MEMB      120             0.0000000000
     15958       126  POPS      H7R            64.4461067434       17.8118936419       32.9296270031  MEMB      120             0.0000000000
     15959       126  POPS      H7S            63.8478353827       19.4178778997       32.4138212033  MEMB      120             0.0000000000
     15960       126  POPS      C28            65.3820876373       19.4418652239       33.9761260407  MEMB      120             0.0000000000
     15961       126  POPS      H8R            66.3249744274       18.8957087949       34.1993128073  MEMB      120             0.0000000000
     15962       126  POPS      H8S            64.6932787076       19.2047589716       34.8181754906  MEMB      120             0.0000000000
     15963       126  POPS      C29            65.6487151414       20.9258905562       33.9189288800  MEMB      120             0.0000000000
     15964       126  POPS      H91            66.6025251904       21.2069659181       33.4439071126  MEMB      120             0.0000000000
     15965       126  POPS      C210           64.8183046874       21.9040925702       34.3308457605  MEMB      120             0.0000000000
     15966       126  POPS      H101           65.1723187637       22.9377470887       34.3084378984  MEMB      120             0.0000000000
     15967       126  POPS      C211           63.4475652065       21.7520185651       34.9321037046  MEMB      120             0.0000000000
     15968       126  POPS      H11R           63.1577054607       20.6858195625       34.9603224541  MEMB      120             0.0000000000
     15969       126  POPS      H11S           62.6968405248       22.2795351061       34.3014658124  MEMB      120             0.0000000000
     15970       126  POPS      C212           63.3231062554       22.2590292647       36.3772849378  MEMB      120             0.0000000000
     15971       126  POPS      H12R           62.2426813007       22.2228827953       36.6524589669  MEMB      120             0.0000000000
     15972       126  POPS      H12S           63.6603208104       23.3127222263       36.4614963045  MEMB      120             0.0000000000
     15973       126  POPS      C213           64.0939533321       21.3629884771       37.3519834544  MEMB      120             0.0000000000
     15974       126  POPS      H13R           65.1849390554       21.5545049167       37.2651135512  MEMB      120             0.0000000000
     15975       126  POPS      H13S           63.9234002030       20.3050769969       37.0429707795  MEMB      120             0.0000000000
     15976       126  POPS      C214           63.6353030808       21.4986720509       38.8079623338  MEMB      120             0.0000000000
     15977       126  POPS      H14R           62.5357087538       21.6711730567       38.8159023363  MEMB      120             0.0000000000
     15978       126  POPS      H14S           64.1256067977       22.3726145825       39.2863886683  MEMB      120             0.0000000000
     15979       126  POPS      C215           63.8724284979       20.2262903834       39.6289673490  MEMB      120             0.0000000000
     15980       126  POPS      H15R           63.1576227615       19.4682768708       39.2484428985  MEMB      120             0.0000000000
     15981       126  POPS      H15S           63.6202397268       20.4139867685       40.6954890482  MEMB      120             0.0000000000
     15982       126  POPS      C216           65.2876127135       19.6475749940       39.5311109613  MEMB      120             0.0000000000
     15983       126  POPS      H16R           65.6583225453       19.6780116597       38.4835852851  MEMB      120             0.0000000000
     15984       126  POPS      H16S           65.2593042744       18.5719553383       39.8192825034  MEMB      120             0.0000000000
     15985       126  POPS      C217           66.2659120123       20.3727340061       40.4518789439  MEMB      120             0.0000000000
     15986       126  POPS      H17R           66.0063424574       21.4526566275       40.5114230803  MEMB      120             0.0000000000
     15987       126  POPS      H17S           67.2807631317       20.3144339027       40.0037296322  MEMB      120             0.0000000000
     15988       126  POPS      C218           66.3022407394       19.7560105354       41.8494477577  MEMB      120             0.0000000000
     15989       126  POPS      H18R           65.3968051642       20.0331501020       42.4293161662  MEMB      120             0.0000000000
     15990       126  POPS      H18S           67.1962893714       20.0876470535       42.4148536914  MEMB      120             0.0000000000
     15991       126  POPS      H18T           66.3526211454       18.6513933219       41.7625983603  MEMB      120             0.0000000000
     15992       126  POPS      C33            60.2247741503       20.0816292826       27.6577672092  MEMB      120             0.0000000000
     15993       126  POPS      H3X            59.4824617499       19.2557906600       27.5549277953  MEMB      120             0.0000000000
     15994       126  POPS      H3Y            59.6510097179       21.0341698607       27.6566686151  MEMB      120             0.0000000000
     15995       126  POPS      C34            61.0093626814       19.8874269461       28.9556330960  MEMB      120             0.0000000000
     15996       126  POPS      H4X            61.6605262304       20.7713730367       29.1429278196  MEMB      120             0.0000000000
     15997       126  POPS      H4Y            61.6764459080       19.0022668204       28.8415500191  MEMB      120             0.0000000000
     15998       126  POPS      C35            60.0711969868       19.6536020483       30.1322924703  MEMB      120             0.0000000000
     15999       126  POPS      H5X            59.3744457082       18.8181098851       29.8932275283  MEMB      120             0.0000000000
     16000       126  POPS      H5Y            59.4521959382       20.5732911447       30.2510024978  MEMB      120             0.0000000000
     16001       126  POPS      C36            60.8162565043       19.3494212830       31.4334341508  MEMB      120             0.0000000000
     16002       126  POPS      H6X            61.8787350317       19.6737010938       31.3409460657  MEMB      120             0.0000000000
     16003       126  POPS      H6Y            60.8136230798       18.2521829427       31.6119744690  MEMB      120             0.0000000000
     16004       126  POPS      C37            60.1880067932       20.1189517335       32.5989498111  MEMB      120             0.0000000000
     16005       126  POPS      H7X            59.0836289861       19.9958515481       32.5736316428  MEMB      120             0.0000000000
     16006       126  POPS      H7Y            60.4277694999       21.1934207939       32.4250959637  MEMB      120             0.0000000000
     16007       126  POPS      C38            60.7086401588       19.7342680751       33.9855421851  MEMB      120             0.0000000000
     16008       126  POPS      H8X            60.3896324106       20.4986213769       34.7285570506  MEMB      120             0.0000000000
     16009       126  POPS      H8Y            61.8144587638       19.7264654934       33.9207186962  MEMB      120             0.0000000000
     16010       126  POPS      C39            60.2472715416       18.3521333684       34.4394802885  MEMB      120             0.0000000000
     16011       126  POPS      H9X            60.7683305260       17.6126275295       33.7910271890  MEMB      120             0.0000000000
     16012       126  POPS      H9Y            59.1544376801       18.2396392967       34.2581617748  MEMB      120             0.0000000000
     16013       126  POPS      C310           60.5322291703       17.9941433047       35.9099415822  MEMB      120             0.0000000000
     16014       126  POPS      H10X           60.5551185275       16.8852710711       35.9188016555  MEMB      120             0.0000000000
     16015       126  POPS      H10Y           59.6967649802       18.3185492489       36.5676279300  MEMB      120             0.0000000000
     16016       126  POPS      C311           61.8644527374       18.4725904205       36.5088317964  MEMB      120             0.0000000000
     16017       126  POPS      H11X           61.7063888514       19.4180342675       37.0755361639  MEMB      120             0.0000000000
     16018       126  POPS      H11Y           62.5801780250       18.6932123454       35.6893146830  MEMB      120             0.0000000000
     16019       126  POPS      C312           62.5063403103       17.4039989857       37.4089113228  MEMB      120             0.0000000000
     16020       126  POPS      H12X           61.8706351349       16.4913933135       37.4068824025  MEMB      120             0.0000000000
     16021       126  POPS      H12Y           62.5422096219       17.7257018824       38.4677894933  MEMB      120             0.0000000000
     16022       126  POPS      C313           63.9118476031       16.9831016175       36.9515852379  MEMB      120             0.0000000000
     16023       126  POPS      H13X           64.6558624198       17.7342947471       37.2920560442  MEMB      120             0.0000000000
     16024       126  POPS      H13Y           63.9519023365       16.9424406734       35.8386575789  MEMB      120             0.0000000000
     16025       126  POPS      C314           64.2373696433       15.5896801035       37.4934127821  MEMB      120             0.0000000000
     16026       126  POPS      H14X           63.8264710060       14.8454615514       36.7736185805  MEMB      120             0.0000000000
     16027       126  POPS      H14Y           63.6876590725       15.4562168050       38.4511177813  MEMB      120             0.0000000000
     16028       126  POPS      C315           65.7145461640       15.2893161194       37.7623631488  MEMB      120             0.0000000000
     16029       126  POPS      H15X           66.3474128446       15.6472085637       36.9221937724  MEMB      120             0.0000000000
     16030       126  POPS      H15Y           65.8165466205       14.1790436316       37.8071594947  MEMB      120             0.0000000000
     16031       126  POPS      C316           66.2118422227       15.8544144595       39.0927875337  MEMB      120             0.0000000000
     16032       126  POPS      H16X           66.4862321178       16.9231770314       38.9880214125  MEMB      120             0.0000000000
     16033       126  POPS      H16Y           67.1034109024       15.3005658185       39.4451139537  MEMB      120             0.0000000000
     16034       126  POPS      H16Z           65.4277285796       15.7559673268       39.8742059235  MEMB      120             0.0000000000
     16035       127  POPC      N               2.0620766443       47.7870420406       21.6067649805  MEMB      121             0.0000000000
     16036       127  POPC      C12             2.5940052806       48.7342584080       22.6785557488  MEMB      121             0.0000000000
     16037       127  POPC      H12A            3.4453872168       49.2633449431       22.2642916818  MEMB      121             0.0000000000
     16038       127  POPC      H12B            2.9369190127       48.1515309123       23.5250402690  MEMB      121             0.0000000000
     16039       127  POPC      C13             1.5101683249       48.5921741069       20.4754723333  MEMB      121             0.0000000000
     16040       127  POPC      H13A            2.2906518779       49.2260978839       20.0660757674  MEMB      121             0.0000000000
     16041       127  POPC      H13B            1.0877020920       47.9693582473       19.7038974110  MEMB      121             0.0000000000
     16042       127  POPC      H13C            0.7351956927       49.2499034582       20.8557983520  MEMB      121             0.0000000000
     16043       127  POPC      C14             3.1242861002       46.8826305120       21.0925022812  MEMB      121             0.0000000000
     16044       127  POPC      H14A            3.9493121123       47.4399370348       20.6563627163  MEMB      121             0.0000000000
     16045       127  POPC      H14B            3.5750798855       46.2697443576       21.8685850810  MEMB      121             0.0000000000
     16046       127  POPC      H14C            2.7134232885       46.2259970924       20.3254205179  MEMB      121             0.0000000000
     16047       127  POPC      C15             0.9505149957       46.9686235908       22.1592877500  MEMB      121             0.0000000000
     16048       127  POPC      H15A            1.2563250429       46.5644075855       23.1097406609  MEMB      121             0.0000000000
     16049       127  POPC      H15B            0.6528112633       46.1926683982       21.4761339415  MEMB      121             0.0000000000
     16050       127  POPC      H15C            0.1203645661       47.6436403326       22.3840755921  MEMB      121             0.0000000000
     16051       127  POPC      C11             1.6159989052       49.8076308702       23.2244530186  MEMB      121             0.0000000000
     16052       127  POPC      H11A            1.4382896954       50.5646772865       22.4236873696  MEMB      121             0.0000000000
     16053       127  POPC      H11B            2.1005488830       50.3403247117       24.0790254111  MEMB      121             0.0000000000
     16054       127  POPC      P              -0.7105092945       50.1835339446       24.2877606838  MEMB      121             0.0000000000
     16055       127  POPC      O13            -2.0025629091       49.8875737639       23.6293619171  MEMB      121             0.0000000000
     16056       127  POPC      O14            -0.2303613078       51.5698592319       24.2538291155  MEMB      121             0.0000000000
     16057       127  POPC      O12             0.3826092101       49.2234454601       23.6374333455  MEMB      121             0.0000000000
     16058       127  POPC      O11            -0.7919415980       49.6610581377       25.7745682729  MEMB      121             0.0000000000
     16059       127  POPC      C1             -0.7429748590       48.2413086354       25.9842977851  MEMB      121             0.0000000000
     16060       127  POPC      HA              0.2702571799       47.8592840571       25.7198766749  MEMB      121             0.0000000000
     16061       127  POPC      HB             -1.4981107352       47.7010870199       25.3639806967  MEMB      121             0.0000000000
     16062       127  POPC      C2             -0.9914024903       47.8391304815       27.4648692180  MEMB      121             0.0000000000
     16063       127  POPC      HS             -2.0411518169       48.1017753717       27.7368212685  MEMB      121             0.0000000000
     16064       127  POPC      O21            -0.0421808185       48.5198843886       28.3078228551  MEMB      121             0.0000000000
     16065       127  POPC      C21            -0.4238346500       49.7638841873       28.6028029654  MEMB      121             0.0000000000
     16066       127  POPC      O22            -1.5535011097       50.2105154073       28.5256294195  MEMB      121             0.0000000000
     16067       127  POPC      C22             0.7654280020       50.5798795503       29.1208197219  MEMB      121             0.0000000000
     16068       127  POPC      H2R             0.9897402792       51.3648986758       28.3676686225  MEMB      121             0.0000000000
     16069       127  POPC      H2S             1.6419164422       49.9063979806       29.2114029001  MEMB      121             0.0000000000
     16070       127  POPC      C3             -0.8579706558       46.2822498353       27.6114782824  MEMB      121             0.0000000000
     16071       127  POPC      HX              0.0138692563       46.0002290459       26.9874520004  MEMB      121             0.0000000000
     16072       127  POPC      HY             -1.7583282694       45.7973774929       27.1631920304  MEMB      121             0.0000000000
     16073       127  POPC      O31            -0.5941267250       45.7933475950       28.9491353513  MEMB      121             0.0000000000
     16074       127  POPC      C31            -1.5602975562       46.0713411189       29.8030157149  MEMB      121             0.0000000000
     16075       127  POPC      O32            -2.6214223452       46.5981364398       29.5312824450  MEMB      121             0.0000000000
     16076       127  POPC      C32            -1.2078170813       45.5666649441       31.2074010919  MEMB      121             0.0000000000
     16077       127  POPC      H2X            -0.6157543506       44.6386089684       31.1290359003  MEMB      121             0.0000000000
     16078       127  POPC      H2Y            -2.1849506568       45.2653546888       31.6170326887  MEMB      121             0.0000000000
     16079       127  POPC      C23             0.4775476512       51.2363768231       30.4975943651  MEMB      121             0.0000000000
     16080       127  POPC      H3R             0.1313988517       50.4338062941       31.1850051349  MEMB      121             0.0000000000
     16081       127  POPC      H3S            -0.3456895351       51.9809304652       30.4191906193  MEMB      121             0.0000000000
     16082       127  POPC      C24             1.7534105864       51.8937141009       31.0443577469  MEMB      121             0.0000000000
     16083       127  POPC      H4R             1.9380173702       52.8501351790       30.5137487759  MEMB      121             0.0000000000
     16084       127  POPC      H4S             2.5806218906       51.2011468547       30.8091933118  MEMB      121             0.0000000000
     16085       127  POPC      C25             1.8537568169       52.1165388327       32.5566994378  MEMB      121             0.0000000000
     16086       127  POPC      H5R             1.1330925471       52.9018268774       32.8625113359  MEMB      121             0.0000000000
     16087       127  POPC      H5S             2.8805549835       52.4877748633       32.7852146553  MEMB      121             0.0000000000
     16088       127  POPC      C26             1.6736568248       50.8307526743       33.3693738626  MEMB      121             0.0000000000
     16089       127  POPC      H6R             2.3902637444       50.0839439132       32.9762297088  MEMB      121             0.0000000000
     16090       127  POPC      H6S             0.6578217239       50.4126440959       33.2038833217  MEMB      121             0.0000000000
     16091       127  POPC      C27             1.8884274241       51.0036423104       34.8852505434  MEMB      121             0.0000000000
     16092       127  POPC      H7R             2.9760342244       51.0978427864       35.0569918219  MEMB      121             0.0000000000
     16093       127  POPC      H7S             1.5622800234       50.0785009618       35.4146416542  MEMB      121             0.0000000000
     16094       127  POPC      C28             1.1607405802       52.2216068013       35.4807288166  MEMB      121             0.0000000000
     16095       127  POPC      H8R             1.5833110316       53.1590878767       35.0608325153  MEMB      121             0.0000000000
     16096       127  POPC      H8S             1.3128266719       52.2568585687       36.5825945319  MEMB      121             0.0000000000
     16097       127  POPC      C29            -0.2799081776       52.0740082960       35.0896325757  MEMB      121             0.0000000000
     16098       127  POPC      H91            -0.4642601336       51.8642918056       34.0278724221  MEMB      121             0.0000000000
     16099       127  POPC      C210           -1.3631045614       52.2909691118       35.8151000646  MEMB      121             0.0000000000
     16100       127  POPC      H101           -2.3159838934       52.0292103517       35.3529020823  MEMB      121             0.0000000000
     16101       127  POPC      C211           -1.4782652855       52.7389233700       37.2320997479  MEMB      121             0.0000000000
     16102       127  POPC      H11R           -1.9877305319       53.7249664770       37.2577171019  MEMB      121             0.0000000000
     16103       127  POPC      H11S           -0.4969383404       52.8355583338       37.7438056439  MEMB      121             0.0000000000
     16104       127  POPC      C212           -2.3295106029       51.7248461162       37.9666675323  MEMB      121             0.0000000000
     16105       127  POPC      H12R           -3.2573222379       51.4610543707       37.4162615152  MEMB      121             0.0000000000
     16106       127  POPC      H12S           -2.6672386953       52.1978880882       38.9115069519  MEMB      121             0.0000000000
     16107       127  POPC      C213           -1.4921019016       50.4770350172       38.2193714244  MEMB      121             0.0000000000
     16108       127  POPC      H13R           -0.5080728079       50.7713893330       38.6500288180  MEMB      121             0.0000000000
     16109       127  POPC      H13S           -1.2823530755       49.9558342901       37.2571392342  MEMB      121             0.0000000000
     16110       127  POPC      C214           -2.1801623906       49.5223856806       39.1689608453  MEMB      121             0.0000000000
     16111       127  POPC      H14R           -1.5079706824       48.6537692975       39.3354073669  MEMB      121             0.0000000000
     16112       127  POPC      H14S           -3.0978222188       49.1321061327       38.6849915800  MEMB      121             0.0000000000
     16113       127  POPC      C215           -2.5720695005       50.1464282121       40.5158962342  MEMB      121             0.0000000000
     16114       127  POPC      H15R           -2.6435302756       49.2665478810       41.1714632046  MEMB      121             0.0000000000
     16115       127  POPC      H15S           -3.5752863627       50.6191393118       40.4425644531  MEMB      121             0.0000000000
     16116       127  POPC      C216           -1.5857819244       51.1409762742       41.1586341223  MEMB      121             0.0000000000
     16117       127  POPC      H16R           -1.5811590082       52.1102824977       40.6185677686  MEMB      121             0.0000000000
     16118       127  POPC      H16S           -0.5623266859       50.7422141715       41.0887403121  MEMB      121             0.0000000000
     16119       127  POPC      C217           -1.8535664857       51.4205006434       42.6439450303  MEMB      121             0.0000000000
     16120       127  POPC      H17R           -1.1106090974       52.1676910794       42.9994451669  MEMB      121             0.0000000000
     16121       127  POPC      H17S           -1.6822357553       50.4836155187       43.2215909510  MEMB      121             0.0000000000
     16122       127  POPC      C218           -3.2574427261       51.9359406458       42.9369619870  MEMB      121             0.0000000000
     16123       127  POPC      H18R           -3.9792162164       51.1012733224       42.8185995548  MEMB      121             0.0000000000
     16124       127  POPC      H18S           -3.5343436185       52.7542558332       42.2371120681  MEMB      121             0.0000000000
     16125       127  POPC      H18T           -3.3337727204       52.3130825386       43.9797655062  MEMB      121             0.0000000000
     16126       127  POPC      C33            -0.5424961277       46.6098381803       32.1446166653  MEMB      121             0.0000000000
     16127       127  POPC      H3X            -0.7498638327       46.3111496695       33.1998804693  MEMB      121             0.0000000000
     16128       127  POPC      H3Y            -0.9646115771       47.6267494038       31.9944553775  MEMB      121             0.0000000000
     16129       127  POPC      C34             0.9784026197       46.6196950969       31.9735986898  MEMB      121             0.0000000000
     16130       127  POPC      H4X             1.2432709017       47.0576329107       30.9850293375  MEMB      121             0.0000000000
     16131       127  POPC      H4Y             1.2986706160       45.5648591976       31.9922880880  MEMB      121             0.0000000000
     16132       127  POPC      C35             1.7846908227       47.2696660111       33.1025334878  MEMB      121             0.0000000000
     16133       127  POPC      H5X             1.5840226758       46.7221815856       34.0500898003  MEMB      121             0.0000000000
     16134       127  POPC      H5Y             1.4135180263       48.2995984010       33.2340166521  MEMB      121             0.0000000000
     16135       127  POPC      C36             3.3003773535       47.2406066438       32.8038440856  MEMB      121             0.0000000000
     16136       127  POPC      H6X             3.4622578680       47.6649956120       31.7852100953  MEMB      121             0.0000000000
     16137       127  POPC      H6Y             3.6333169813       46.1795230955       32.7696368281  MEMB      121             0.0000000000
     16138       127  POPC      C37             4.2049103668       48.0245616415       33.7800338114  MEMB      121             0.0000000000
     16139       127  POPC      H7X             4.0746017425       49.1111795952       33.5925178593  MEMB      121             0.0000000000
     16140       127  POPC      H7Y             5.2685557219       47.7917780553       33.5464853181  MEMB      121             0.0000000000
     16141       127  POPC      C38             3.9504753650       47.7581314918       35.2703877618  MEMB      121             0.0000000000
     16142       127  POPC      H8X             4.2721817363       46.7241927666       35.5268410750  MEMB      121             0.0000000000
     16143       127  POPC      H8Y             2.8585684463       47.8302250356       35.4637835823  MEMB      121             0.0000000000
     16144       127  POPC      C39             4.6711843568       48.7629566682       36.1901207705  MEMB      121             0.0000000000
     16145       127  POPC      H9X             4.3189134220       49.7915661566       35.9672570627  MEMB      121             0.0000000000
     16146       127  POPC      H9Y             5.7607581755       48.7385125121       35.9615281158  MEMB      121             0.0000000000
     16147       127  POPC      C310            4.4584616168       48.4846067740       37.6899681028  MEMB      121             0.0000000000
     16148       127  POPC      H10X            5.1034380094       49.1638348248       38.2917589394  MEMB      121             0.0000000000
     16149       127  POPC      H10Y            4.7799220314       47.4408614858       37.8893129979  MEMB      121             0.0000000000
     16150       127  POPC      C311            3.0022931694       48.5993657474       38.1654447888  MEMB      121             0.0000000000
     16151       127  POPC      H11X            2.3599497462       48.0200244317       37.4677650389  MEMB      121             0.0000000000
     16152       127  POPC      H11Y            2.6596884658       49.6560234362       38.1307912109  MEMB      121             0.0000000000
     16153       127  POPC      C312            2.7828998145       48.0039108019       39.5671822048  MEMB      121             0.0000000000
     16154       127  POPC      H12X            3.0769983610       48.7515392197       40.3350643347  MEMB      121             0.0000000000
     16155       127  POPC      H12Y            3.4477877514       47.1191815605       39.7013850439  MEMB      121             0.0000000000
     16156       127  POPC      C313            1.3315902057       47.5443163017       39.7978930707  MEMB      121             0.0000000000
     16157       127  POPC      H13X            1.2847123955       46.4382254816       39.7981875188  MEMB      121             0.0000000000
     16158       127  POPC      H13Y            0.6915624229       47.8928171572       38.9553069234  MEMB      121             0.0000000000
     16159       127  POPC      C314            0.7323571128       48.0591681071       41.1097309051  MEMB      121             0.0000000000
     16160       127  POPC      H14X            0.4300024867       49.1007989750       40.9097702954  MEMB      121             0.0000000000
     16161       127  POPC      H14Y            1.4870282983       48.0904633875       41.9195391237  MEMB      121             0.0000000000
     16162       127  POPC      C315           -0.4930700765       47.2801739744       41.6017212168  MEMB      121             0.0000000000
     16163       127  POPC      H15X           -1.1006298717       46.9715080467       40.7252122349  MEMB      121             0.0000000000
     16164       127  POPC      H15Y           -1.1171383347       47.9758533565       42.2099055406  MEMB      121             0.0000000000
     16165       127  POPC      C316           -0.1442527018       46.0764975128       42.4800074468  MEMB      121             0.0000000000
     16166       127  POPC      H16X            0.4298138551       46.4167590085       43.3663582581  MEMB      121             0.0000000000
     16167       127  POPC      H16Y            0.4640893805       45.3380542179       41.9224645333  MEMB      121             0.0000000000
     16168       127  POPC      H16Z           -1.0612816274       45.5655759167       42.8414353579  MEMB      121             0.0000000000
     16169       128  POPC      N              15.1477751871       68.5467332083       24.3547920203  MEMB      122             0.0000000000
     16170       128  POPC      C12            13.9866187875       67.5726992361       24.1858936554  MEMB      122             0.0000000000
     16171       128  POPC      H12A           13.1044770901       68.0267612029       24.6220633258  MEMB      122             0.0000000000
     16172       128  POPC      H12B           14.1892454985       66.6814323524       24.7654758131  MEMB      122             0.0000000000
     16173       128  POPC      C13            15.2889026919       68.9206214870       25.7930526291  MEMB      122             0.0000000000
     16174       128  POPC      H13A           14.5221204359       69.6243261668       26.0841105928  MEMB      122             0.0000000000
     16175       128  POPC      H13B           15.2043504058       68.0346104564       26.4163866359  MEMB      122             0.0000000000
     16176       128  POPC      H13C           16.2593175506       69.3606074325       25.9770157309  MEMB      122             0.0000000000
     16177       128  POPC      C14            16.4050056023       67.8766609103       23.8956567777  MEMB      122             0.0000000000
     16178       128  POPC      H14A           16.1860055714       67.3435367267       22.9628413751  MEMB      122             0.0000000000
     16179       128  POPC      H14B           17.1683549642       68.6126152704       23.6729900931  MEMB      122             0.0000000000
     16180       128  POPC      H14C           16.7926580237       67.1501957839       24.6035260595  MEMB      122             0.0000000000
     16181       128  POPC      C15            14.9443026122       69.7489500818       23.4867212969  MEMB      122             0.0000000000
     16182       128  POPC      H15A           14.7963288000       69.3713399631       22.4729967615  MEMB      122             0.0000000000
     16183       128  POPC      H15B           15.8133784959       70.4021994231       23.4812065864  MEMB      122             0.0000000000
     16184       128  POPC      H15C           14.0597107884       70.3153708997       23.7491890363  MEMB      122             0.0000000000
     16185       128  POPC      C11            13.5908895171       67.0660509972       22.7653033702  MEMB      122             0.0000000000
     16186       128  POPC      H11A           13.1780736150       67.9174068170       22.1818673980  MEMB      122             0.0000000000
     16187       128  POPC      H11B           12.7510941836       66.3582745532       22.9755546781  MEMB      122             0.0000000000
     16188       128  POPC      P              14.4305136561       65.0486793646       21.2773726052  MEMB      122             0.0000000000
     16189       128  POPC      O13            15.7290734995       64.4078506899       20.9405166933  MEMB      122             0.0000000000
     16190       128  POPC      O14            13.4094263502       65.1828716461       20.2147111242  MEMB      122             0.0000000000
     16191       128  POPC      O12            14.6623880137       66.4491547205       22.0297918418  MEMB      122             0.0000000000
     16192       128  POPC      O11            13.7562876588       64.2564211300       22.4564209524  MEMB      122             0.0000000000
     16193       128  POPC      C1             12.5920861726       63.4258739442       22.3868405635  MEMB      122             0.0000000000
     16194       128  POPC      HA             12.8254001873       62.5220533972       21.7825381717  MEMB      122             0.0000000000
     16195       128  POPC      HB             11.7447206843       63.9417742512       21.8914282854  MEMB      122             0.0000000000
     16196       128  POPC      C2             12.0882258202       62.9233234753       23.7946234556  MEMB      122             0.0000000000
     16197       128  POPC      HS             11.2624134134       62.1967952598       23.6098039431  MEMB      122             0.0000000000
     16198       128  POPC      O21            11.5921666177       64.0379470858       24.5800209568  MEMB      122             0.0000000000
     16199       128  POPC      C21            10.9827669106       63.7029616986       25.7448272400  MEMB      122             0.0000000000
     16200       128  POPC      O22            10.8266300006       62.5759391182       26.1485231144  MEMB      122             0.0000000000
     16201       128  POPC      C22            10.6106830571       64.9755102900       26.5039259950  MEMB      122             0.0000000000
     16202       128  POPC      H2R             9.7516445032       65.4450300096       25.9890545187  MEMB      122             0.0000000000
     16203       128  POPC      H2S            11.4674826278       65.6710512188       26.4740722435  MEMB      122             0.0000000000
     16204       128  POPC      C3             13.2538060678       62.1680805304       24.5190763355  MEMB      122             0.0000000000
     16205       128  POPC      HX             13.5617401890       61.3961446249       23.7902927427  MEMB      122             0.0000000000
     16206       128  POPC      HY             12.8982366920       61.6205916557       25.4092632351  MEMB      122             0.0000000000
     16207       128  POPC      O31            14.3779658149       63.0298786693       24.7881704211  MEMB      122             0.0000000000
     16208       128  POPC      C31            14.6473919214       63.2619631584       26.0534853661  MEMB      122             0.0000000000
     16209       128  POPC      O32            14.6248679751       62.4512995288       26.9626095639  MEMB      122             0.0000000000
     16210       128  POPC      C32            14.7743411531       64.7878019642       26.1692938467  MEMB      122             0.0000000000
     16211       128  POPC      H2X            13.8413343301       65.2251409260       25.7616006791  MEMB      122             0.0000000000
     16212       128  POPC      H2Y            15.6255546396       65.0806341730       25.5205324399  MEMB      122             0.0000000000
     16213       128  POPC      C23            10.2146167736       64.6519349046       27.9610912878  MEMB      122             0.0000000000
     16214       128  POPC      H3R            11.0860300678       64.2533698105       28.5185631409  MEMB      122             0.0000000000
     16215       128  POPC      H3S             9.4486750329       63.8419631148       27.9735027445  MEMB      122             0.0000000000
     16216       128  POPC      C24             9.6230988305       65.8459887007       28.7152866508  MEMB      122             0.0000000000
     16217       128  POPC      H4R             8.5857305624       66.0208676199       28.3484290433  MEMB      122             0.0000000000
     16218       128  POPC      H4S            10.2169790977       66.7625183027       28.5042639596  MEMB      122             0.0000000000
     16219       128  POPC      C25             9.6033424794       65.6223489719       30.2321498276  MEMB      122             0.0000000000
     16220       128  POPC      H5R             8.8986444441       66.3460886293       30.6998863082  MEMB      122             0.0000000000
     16221       128  POPC      H5S            10.6247600074       65.8479917948       30.6115114426  MEMB      122             0.0000000000
     16222       128  POPC      C26             9.2310389729       64.1950227543       30.6679479896  MEMB      122             0.0000000000
     16223       128  POPC      H6R            10.0506341196       63.4992031215       30.3825479804  MEMB      122             0.0000000000
     16224       128  POPC      H6S             8.3105074415       63.8621811087       30.1395360944  MEMB      122             0.0000000000
     16225       128  POPC      C27             9.0164186207       64.0819912854       32.1850442401  MEMB      122             0.0000000000
     16226       128  POPC      H7R             8.7276002485       63.0350484973       32.4365826360  MEMB      122             0.0000000000
     16227       128  POPC      H7S             8.1662793535       64.7426676971       32.4658475860  MEMB      122             0.0000000000
     16228       128  POPC      C28            10.2693943694       64.4778911572       32.9852686092  MEMB      122             0.0000000000
     16229       128  POPC      H8R            10.6363855565       65.4731274058       32.6602239007  MEMB      122             0.0000000000
     16230       128  POPC      H8S            11.0781784040       63.7579547657       32.7564172484  MEMB      122             0.0000000000
     16231       128  POPC      C29            10.0296124559       64.4687279990       34.4622408493  MEMB      122             0.0000000000
     16232       128  POPC      H91            10.0576124607       63.4658327622       34.9092813869  MEMB      122             0.0000000000
     16233       128  POPC      C210            9.8328697220       65.5425979068       35.2457632315  MEMB      122             0.0000000000
     16234       128  POPC      H101            9.7002277928       65.3835399068       36.3259798512  MEMB      122             0.0000000000
     16235       128  POPC      C211            9.8070297639       66.9905495485       34.8198787747  MEMB      122             0.0000000000
     16236       128  POPC      H11R            9.0054928852       67.5269109851       35.3737629276  MEMB      122             0.0000000000
     16237       128  POPC      H11S            9.5523042517       67.0935262727       33.7393996136  MEMB      122             0.0000000000
     16238       128  POPC      C212           11.1474900725       67.7253742699       35.0533483066  MEMB      122             0.0000000000
     16239       128  POPC      H12R           10.9832781707       68.8167115471       34.9424509234  MEMB      122             0.0000000000
     16240       128  POPC      H12S           11.8558467819       67.4230880907       34.2471035580  MEMB      122             0.0000000000
     16241       128  POPC      C213           11.8516681050       67.4711013006       36.4002596996  MEMB      122             0.0000000000
     16242       128  POPC      H13R           12.7662902327       68.1042510828       36.4422631064  MEMB      122             0.0000000000
     16243       128  POPC      H13S           12.1899830862       66.4110519248       36.4131860634  MEMB      122             0.0000000000
     16244       128  POPC      C214           11.0187546246       67.7289139914       37.6672925085  MEMB      122             0.0000000000
     16245       128  POPC      H14R           10.0316925695       67.2270435642       37.5660836160  MEMB      122             0.0000000000
     16246       128  POPC      H14S           10.8306953466       68.8165653016       37.7939050072  MEMB      122             0.0000000000
     16247       128  POPC      C215           11.7042013196       67.1506282088       38.9178234761  MEMB      122             0.0000000000
     16248       128  POPC      H15R           11.9291713497       66.0827046286       38.7229095641  MEMB      122             0.0000000000
     16249       128  POPC      H15S           11.0171976463       67.1827391493       39.7859411358  MEMB      122             0.0000000000
     16250       128  POPC      C216           12.9667632650       67.8928919318       39.3610268532  MEMB      122             0.0000000000
     16251       128  POPC      H16R           13.5962668084       68.1651320650       38.4900063571  MEMB      122             0.0000000000
     16252       128  POPC      H16S           13.5735404198       67.2080141330       39.9990602589  MEMB      122             0.0000000000
     16253       128  POPC      C217           12.5979226018       69.1216720457       40.1984270919  MEMB      122             0.0000000000
     16254       128  POPC      H17R           11.4921074753       69.2611219108       40.1746428689  MEMB      122             0.0000000000
     16255       128  POPC      H17S           13.0436565778       70.0362742017       39.7488657698  MEMB      122             0.0000000000
     16256       128  POPC      C218           13.0349408631       68.9783961207       41.6524321391  MEMB      122             0.0000000000
     16257       128  POPC      H18R           12.5687055207       69.7624786214       42.2822209967  MEMB      122             0.0000000000
     16258       128  POPC      H18S           14.1400595102       69.0770811962       41.7216236644  MEMB      122             0.0000000000
     16259       128  POPC      H18T           12.7384948874       67.9902564320       42.0671117454  MEMB      122             0.0000000000
     16260       128  POPC      C33            15.0210279751       65.2660400268       27.6136162467  MEMB      122             0.0000000000
     16261       128  POPC      H3X            15.6177946522       66.2035478521       27.5808745744  MEMB      122             0.0000000000
     16262       128  POPC      H3Y            15.6351152085       64.4982760730       28.1355721609  MEMB      122             0.0000000000
     16263       128  POPC      C34            13.7375189612       65.5311280474       28.4028722238  MEMB      122             0.0000000000
     16264       128  POPC      H4X            13.0290060108       64.7070386950       28.1689330329  MEMB      122             0.0000000000
     16265       128  POPC      H4Y            13.2734475508       66.4881184168       28.0795327756  MEMB      122             0.0000000000
     16266       128  POPC      C35            13.9451966508       65.5320498884       29.9228386250  MEMB      122             0.0000000000
     16267       128  POPC      H5X            12.9655529553       65.7421174063       30.4124011463  MEMB      122             0.0000000000
     16268       128  POPC      H5Y            14.6510072263       66.3352601719       30.2277533760  MEMB      122             0.0000000000
     16269       128  POPC      C36            14.4614067033       64.1776673281       30.4367504331  MEMB      122             0.0000000000
     16270       128  POPC      H6X            15.5687441640       64.1280984525       30.3297661610  MEMB      122             0.0000000000
     16271       128  POPC      H6Y            14.0247813700       63.3649520114       29.8111674445  MEMB      122             0.0000000000
     16272       128  POPC      C37            14.0828153505       63.9011526994       31.8928960980  MEMB      122             0.0000000000
     16273       128  POPC      H7X            14.4755024181       62.9014072397       32.1863260741  MEMB      122             0.0000000000
     16274       128  POPC      H7Y            12.9775344536       63.8630400480       31.9734890559  MEMB      122             0.0000000000
     16275       128  POPC      C38            14.6307398405       64.9614936890       32.8476057024  MEMB      122             0.0000000000
     16276       128  POPC      H8X            14.1981753906       65.9603245775       32.6187303379  MEMB      122             0.0000000000
     16277       128  POPC      H8Y            15.7294158719       65.0188573420       32.6820122852  MEMB      122             0.0000000000
     16278       128  POPC      C39            14.3813352740       64.6367747743       34.3215203512  MEMB      122             0.0000000000
     16279       128  POPC      H9X            14.5782131482       63.5533806756       34.4853184770  MEMB      122             0.0000000000
     16280       128  POPC      H9Y            13.3172616982       64.8359397919       34.5810489906  MEMB      122             0.0000000000
     16281       128  POPC      C310           15.3162900827       65.4634145841       35.2102190051  MEMB      122             0.0000000000
     16282       128  POPC      H10X           15.1483020017       66.5439105178       34.9945126138  MEMB      122             0.0000000000
     16283       128  POPC      H10Y           16.3652938425       65.2236962538       34.9271677633  MEMB      122             0.0000000000
     16284       128  POPC      C311           15.1414302066       65.2246946792       36.7148878241  MEMB      122             0.0000000000
     16285       128  POPC      H11X           14.1710195490       65.6598912966       37.0348017828  MEMB      122             0.0000000000
     16286       128  POPC      H11Y           15.9451676014       65.7802797574       37.2486044547  MEMB      122             0.0000000000
     16287       128  POPC      C312           15.2058797443       63.7477996560       37.1357154886  MEMB      122             0.0000000000
     16288       128  POPC      H12X           16.1524209601       63.3125527359       36.7415600516  MEMB      122             0.0000000000
     16289       128  POPC      H12Y           14.3604097551       63.1808722906       36.6893957422  MEMB      122             0.0000000000
     16290       128  POPC      C313           15.1808849785       63.5662633612       38.6608522552  MEMB      122             0.0000000000
     16291       128  POPC      H13X           15.9404052161       64.2451709134       39.1047726309  MEMB      122             0.0000000000
     16292       128  POPC      H13Y           15.4634285821       62.5251810563       38.9117836134  MEMB      122             0.0000000000
     16293       128  POPC      C314           13.8077689465       63.8132384107       39.2939692240  MEMB      122             0.0000000000
     16294       128  POPC      H14X           13.1922786814       62.8936023431       39.2004793357  MEMB      122             0.0000000000
     16295       128  POPC      H14Y           13.3114196097       64.5976061829       38.6862501967  MEMB      122             0.0000000000
     16296       128  POPC      C315           13.8543702180       64.2986024150       40.7565662597  MEMB      122             0.0000000000
     16297       128  POPC      H15X           13.1240637673       65.1366308146       40.8509590998  MEMB      122             0.0000000000
     16298       128  POPC      H15Y           14.8578728163       64.7280354090       40.9684347207  MEMB      122             0.0000000000
     16299       128  POPC      C316           13.5011015889       63.2533537398       41.8242593164  MEMB      122             0.0000000000
     16300       128  POPC      H16X           14.2277260995       62.4207139264       41.8548266826  MEMB      122             0.0000000000
     16301       128  POPC      H16Y           12.5088243205       62.7997592812       41.6386454910  MEMB      122             0.0000000000
     16302       128  POPC      H16Z           13.4710701301       63.7287477130       42.8272634419  MEMB      122             0.0000000000
     16303       129  POPC      N              56.8885054040        3.5306919048       23.7992999531  MEMB      123             0.0000000000
     16304       129  POPC      C12            56.6231469434        4.6495552087       22.7834480659  MEMB      123             0.0000000000
     16305       129  POPC      H12A           55.6687130259        5.1193828732       23.0027702170  MEMB      123             0.0000000000
     16306       129  POPC      H12B           56.5644335228        4.1954066409       21.8019835107  MEMB      123             0.0000000000
     16307       129  POPC      C13            56.6672824540        4.0432066372       25.1880717527  MEMB      123             0.0000000000
     16308       129  POPC      H13A           55.7174252246        4.5631683390       25.2581145201  MEMB      123             0.0000000000
     16309       129  POPC      H13B           56.6792996054        3.2241461828       25.8987307151  MEMB      123             0.0000000000
     16310       129  POPC      H13C           57.4571713823        4.7422250129       25.4596553747  MEMB      123             0.0000000000
     16311       129  POPC      C14            55.9810360885        2.3813347064       23.5196234081  MEMB      123             0.0000000000
     16312       129  POPC      H14A           55.0309381739        2.5421479920       23.9972286662  MEMB      123             0.0000000000
     16313       129  POPC      H14B           55.7982265509        2.2410714491       22.4515866173  MEMB      123             0.0000000000
     16314       129  POPC      H14C           56.4118120317        1.4538980088       23.8709854268  MEMB      123             0.0000000000
     16315       129  POPC      C15            58.3012269502        3.0582901324       23.6709506360  MEMB      123             0.0000000000
     16316       129  POPC      H15A           58.9541377452        3.8837112823       23.9657644442  MEMB      123             0.0000000000
     16317       129  POPC      H15B           58.5984607653        2.8512430607       22.6442203727  MEMB      123             0.0000000000
     16318       129  POPC      H15C           58.5530713973        2.2304895555       24.3092946436  MEMB      123             0.0000000000
     16319       129  POPC      C11            57.6655266436        5.7871356000       22.6228049319  MEMB      123             0.0000000000
     16320       129  POPC      H11A           57.8315939956        6.2515229914       23.6286854299  MEMB      123             0.0000000000
     16321       129  POPC      H11B           57.2140891472        6.5892990419       21.9907325407  MEMB      123             0.0000000000
     16322       129  POPC      P              60.2544022293        5.8456020519       22.5687478727  MEMB      123             0.0000000000
     16323       129  POPC      O13            60.0834433388        7.2945693185       22.7938677973  MEMB      123             0.0000000000
     16324       129  POPC      O14            61.4032197019        5.4109940193       21.7523645465  MEMB      123             0.0000000000
     16325       129  POPC      O12            58.8638660920        5.3115506038       21.9724618190  MEMB      123             0.0000000000
     16326       129  POPC      O11            60.3345308068        5.0886318405       23.9539678529  MEMB      123             0.0000000000
     16327       129  POPC      C1             60.6429619852        5.8054834456       25.1477701409  MEMB      123             0.0000000000
     16328       129  POPC      HA             59.7571422194        6.3817543315       25.4959270899  MEMB      123             0.0000000000
     16329       129  POPC      HB             61.4736687917        6.5312114526       24.9792786437  MEMB      123             0.0000000000
     16330       129  POPC      C2             61.0518790985        4.8430861006       26.2970871726  MEMB      123             0.0000000000
     16331       129  POPC      HS             61.8011453118        4.1266131339       25.8844897617  MEMB      123             0.0000000000
     16332       129  POPC      O21            59.8710117437        4.1466048083       26.7438065947  MEMB      123             0.0000000000
     16333       129  POPC      C21            60.0354624870        3.1840950917       27.6417602461  MEMB      123             0.0000000000
     16334       129  POPC      O22            61.0823606766        2.7959581814       28.1134085155  MEMB      123             0.0000000000
     16335       129  POPC      C22            58.6494809059        2.5778489953       27.8554293576  MEMB      123             0.0000000000
     16336       129  POPC      H2R            58.2036427549        2.4647899277       26.8475313806  MEMB      123             0.0000000000
     16337       129  POPC      H2S            58.0605031440        3.3182520018       28.4224420455  MEMB      123             0.0000000000
     16338       129  POPC      C3             61.7231936833        5.6589556073       27.4423988036  MEMB      123             0.0000000000
     16339       129  POPC      HX             62.5307833051        6.2720760789       26.9786907598  MEMB      123             0.0000000000
     16340       129  POPC      HY             62.2490504882        4.9704462057       28.1464416772  MEMB      123             0.0000000000
     16341       129  POPC      O31            60.7793186391        6.5624635860       28.0760434172  MEMB      123             0.0000000000
     16342       129  POPC      C31            60.4014761300        6.1867558361       29.3014812744  MEMB      123             0.0000000000
     16343       129  POPC      O32            60.6637626699        5.1255837520       29.8321088355  MEMB      123             0.0000000000
     16344       129  POPC      C32            59.6645237095        7.3252303096       30.0045322016  MEMB      123             0.0000000000
     16345       129  POPC      H2X            58.5767645094        7.1122812907       29.9822190999  MEMB      123             0.0000000000
     16346       129  POPC      H2Y            59.8576197760        8.2797293773       29.4792465744  MEMB      123             0.0000000000
     16347       129  POPC      C23            58.6561395979        1.1805469775       28.5039808715  MEMB      123             0.0000000000
     16348       129  POPC      H3R            59.4048286193        0.5685803104       27.9610695886  MEMB      123             0.0000000000
     16349       129  POPC      H3S            57.6730956355        0.6836189260       28.3556483974  MEMB      123             0.0000000000
     16350       129  POPC      C24            58.9508494189        1.1855058558       30.0068403275  MEMB      123             0.0000000000
     16351       129  POPC      H4R            59.6821245988        1.9876718224       30.2596104476  MEMB      123             0.0000000000
     16352       129  POPC      H4S            59.4300564395        0.2118336302       30.2534322884  MEMB      123             0.0000000000
     16353       129  POPC      C25            57.7016037806        1.2958824238       30.8991199000  MEMB      123             0.0000000000
     16354       129  POPC      H5R            58.0522525617        1.4458693204       31.9378214546  MEMB      123             0.0000000000
     16355       129  POPC      H5S            57.1567662211        0.3300299023       30.8887709329  MEMB      123             0.0000000000
     16356       129  POPC      C26            56.7578628871        2.4308317838       30.4777361207  MEMB      123             0.0000000000
     16357       129  POPC      H6R            56.3492660669        2.2051620244       29.4690718248  MEMB      123             0.0000000000
     16358       129  POPC      H6S            57.3723248965        3.3577356509       30.4055256411  MEMB      123             0.0000000000
     16359       129  POPC      C27            55.5677490266        2.7258816988       31.4056827061  MEMB      123             0.0000000000
     16360       129  POPC      H7R            54.8041403251        1.9274214438       31.3124284933  MEMB      123             0.0000000000
     16361       129  POPC      H7S            55.0842766061        3.6610196871       31.0359997425  MEMB      123             0.0000000000
     16362       129  POPC      C28            55.9490334011        2.9230701788       32.8795256634  MEMB      123             0.0000000000
     16363       129  POPC      H8R            56.4144112329        1.9980873063       33.2853993593  MEMB      123             0.0000000000
     16364       129  POPC      H8S            55.0303427485        3.1017475398       33.4813366303  MEMB      123             0.0000000000
     16365       129  POPC      C29            56.9065842387        4.0822477414       32.9430269526  MEMB      123             0.0000000000
     16366       129  POPC      H91            57.9521289675        3.8283057035       32.7148963388  MEMB      123             0.0000000000
     16367       129  POPC      C210           56.5991056495        5.3688922481       33.1447351674  MEMB      123             0.0000000000
     16368       129  POPC      H101           57.4107910203        6.1126776189       33.1705396728  MEMB      123             0.0000000000
     16369       129  POPC      C211           55.2253880358        5.9382541627       33.3552471565  MEMB      123             0.0000000000
     16370       129  POPC      H11R           54.4119386982        5.1831426266       33.2600078054  MEMB      123             0.0000000000
     16371       129  POPC      H11S           55.0264299589        6.7152569993       32.5823208437  MEMB      123             0.0000000000
     16372       129  POPC      C212           55.1580828798        6.5770101610       34.7460550838  MEMB      123             0.0000000000
     16373       129  POPC      H12R           54.3857765901        7.3734702799       34.7112305695  MEMB      123             0.0000000000
     16374       129  POPC      H12S           56.1051182106        7.0899266322       35.0218104530  MEMB      123             0.0000000000
     16375       129  POPC      C213           54.7791388302        5.5796151828       35.8524799365  MEMB      123             0.0000000000
     16376       129  POPC      H13R           55.6224766728        4.8873908287       36.0335165755  MEMB      123             0.0000000000
     16377       129  POPC      H13S           53.9333550353        4.9345996148       35.5259160418  MEMB      123             0.0000000000
     16378       129  POPC      C214           54.3640880519        6.3310160148       37.1235996935  MEMB      123             0.0000000000
     16379       129  POPC      H14R           53.3308939318        6.6947139439       37.0060022106  MEMB      123             0.0000000000
     16380       129  POPC      H14S           54.9165073711        7.2798299082       37.2106787550  MEMB      123             0.0000000000
     16381       129  POPC      C215           54.4765397008        5.5212605566       38.4180854619  MEMB      123             0.0000000000
     16382       129  POPC      H15R           53.7882882707        4.6462895068       38.3541673693  MEMB      123             0.0000000000
     16383       129  POPC      H15S           54.0941600614        6.1507424993       39.2511349571  MEMB      123             0.0000000000
     16384       129  POPC      C216           55.8792859261        5.0008630772       38.7915287288  MEMB      123             0.0000000000
     16385       129  POPC      H16R           55.9427978467        3.9341728806       38.4717375228  MEMB      123             0.0000000000
     16386       129  POPC      H16S           55.9494570951        5.0062587912       39.9030451629  MEMB      123             0.0000000000
     16387       129  POPC      C217           57.1367961692        5.6975626806       38.2151378750  MEMB      123             0.0000000000
     16388       129  POPC      H17R           57.3043870785        5.3381140844       37.1758887004  MEMB      123             0.0000000000
     16389       129  POPC      H17S           57.9915297700        5.3208237084       38.8229842613  MEMB      123             0.0000000000
     16390       129  POPC      C218           57.2103502269        7.2274151236       38.2004601902  MEMB      123             0.0000000000
     16391       129  POPC      H18R           56.8620932673        7.6354272393       37.2288263252  MEMB      123             0.0000000000
     16392       129  POPC      H18S           58.2510943815        7.5830101686       38.3419466873  MEMB      123             0.0000000000
     16393       129  POPC      H18T           56.5669341674        7.6352987042       39.0003857334  MEMB      123             0.0000000000
     16394       129  POPC      C33            60.1909047931        7.3820242482       31.4597847297  MEMB      123             0.0000000000
     16395       129  POPC      H3X            61.3041263811        7.4204458646       31.4192962150  MEMB      123             0.0000000000
     16396       129  POPC      H3Y            59.9015502070        6.4408639817       31.9826306957  MEMB      123             0.0000000000
     16397       129  POPC      C34            59.7384660785        8.5791572733       32.3118971076  MEMB      123             0.0000000000
     16398       129  POPC      H4X            58.6309836829        8.6779194583       32.2369097688  MEMB      123             0.0000000000
     16399       129  POPC      H4Y            60.1772066051        9.5107156343       31.8906828446  MEMB      123             0.0000000000
     16400       129  POPC      C35            60.1350871025        8.4412825537       33.8064819244  MEMB      123             0.0000000000
     16401       129  POPC      H5X            59.5219169749        7.6194935487       34.2399957191  MEMB      123             0.0000000000
     16402       129  POPC      H5Y            59.8593103181        9.3828617500       34.3345991375  MEMB      123             0.0000000000
     16403       129  POPC      C36            61.6253989629        8.1232148752       34.1003899516  MEMB      123             0.0000000000
     16404       129  POPC      H6X            62.2159946250        9.0424885065       33.8963355920  MEMB      123             0.0000000000
     16405       129  POPC      H6Y            61.9789929839        7.3103934914       33.4312782186  MEMB      123             0.0000000000
     16406       129  POPC      C37            61.9312341222        7.7011747776       35.5565013325  MEMB      123             0.0000000000
     16407       129  POPC      H7X            61.1312555974        7.0408650399       35.9313279416  MEMB      123             0.0000000000
     16408       129  POPC      H7Y            61.8762350972        8.6288546454       36.1745413577  MEMB      123             0.0000000000
     16409       129  POPC      C38            63.3259381773        7.0541409428       35.8273995254  MEMB      123             0.0000000000
     16410       129  POPC      H8X            63.4253842167        6.9625497653       36.9300563768  MEMB      123             0.0000000000
     16411       129  POPC      H8Y            64.0727296627        7.8057908397       35.5242774882  MEMB      123             0.0000000000
     16412       129  POPC      C39            63.7258483886        5.6887692383       35.1685190249  MEMB      123             0.0000000000
     16413       129  POPC      H9X            64.3676793873        5.9365472758       34.2951154073  MEMB      123             0.0000000000
     16414       129  POPC      H9Y            62.8505506526        5.1836046167       34.7344126283  MEMB      123             0.0000000000
     16415       129  POPC      C310           64.5183202315        4.6799264535       36.0788904494  MEMB      123             0.0000000000
     16416       129  POPC      H10X           64.4999765632        5.0722587464       37.1014258293  MEMB      123             0.0000000000
     16417       129  POPC      H10Y           65.5819596605        4.7285152116       35.7547280116  MEMB      123             0.0000000000
     16418       129  POPC      C311           64.0989204311        3.1638357591       36.0879903696  MEMB      123             0.0000000000
     16419       129  POPC      H11X           64.9896317299        2.5931264815       35.7402625631  MEMB      123             0.0000000000
     16420       129  POPC      H11Y           63.3691966377        3.0442790190       35.2825604815  MEMB      123             0.0000000000
     16421       129  POPC      C312           63.6435670963        2.4521128349       37.4278186779  MEMB      123             0.0000000000
     16422       129  POPC      H12X           63.5806796838        3.1730508272       38.2322246176  MEMB      123             0.0000000000
     16423       129  POPC      H12Y           64.4954129967        1.7834789616       37.7036821397  MEMB      123             0.0000000000
     16424       129  POPC      C313           62.3902559224        1.5006494749       37.4279947130  MEMB      123             0.0000000000
     16425       129  POPC      H13X           62.7443266022        0.4511481811       37.3788885932  MEMB      123             0.0000000000
     16426       129  POPC      H13Y           61.9403481820        1.6759867941       36.4545612243  MEMB      123             0.0000000000
     16427       129  POPC      C314           61.0776955024        1.5503636064       38.3152771201  MEMB      123             0.0000000000
     16428       129  POPC      H14X           60.7557823515        0.4847750435       38.3864291196  MEMB      123             0.0000000000
     16429       129  POPC      H14Y           60.2759202682        2.0348482715       37.7174925426  MEMB      123             0.0000000000
     16430       129  POPC      C315           60.9363916574        2.1160674025       39.7543283143  MEMB      123             0.0000000000
     16431       129  POPC      H15X           60.2356906146        2.9822651693       39.7190618918  MEMB      123             0.0000000000
     16432       129  POPC      H15Y           61.8896783525        2.5166075305       40.1483279493  MEMB      123             0.0000000000
     16433       129  POPC      C316           60.3369566093        1.1071836797       40.7441504684  MEMB      123             0.0000000000
     16434       129  POPC      H16X           61.0246166131        0.2560948844       40.9032744503  MEMB      123             0.0000000000
     16435       129  POPC      H16Y           59.3826699169        0.6943536972       40.3564258782  MEMB      123             0.0000000000
     16436       129  POPC      H16Z           60.1547461305        1.5720670084       41.7357466926  MEMB      123             0.0000000000
     16437       130  POPC      N               9.1569575021        6.4714795808       23.2031470080  MEMB      124             0.0000000000
     16438       130  POPC      C12             8.3346265269        5.8655518284       24.3299584011  MEMB      124             0.0000000000
     16439       130  POPC      H12A            8.0633605583        6.6691752080       25.0187757583  MEMB      124             0.0000000000
     16440       130  POPC      H12B            8.9205977141        5.1547400523       24.8921313758  MEMB      124             0.0000000000
     16441       130  POPC      C13             8.4331265868        7.6778711303       22.6754768806  MEMB      124             0.0000000000
     16442       130  POPC      H13A            8.2942882155        8.4213941197       23.4488943412  MEMB      124             0.0000000000
     16443       130  POPC      H13B            8.9248410919        8.1221439213       21.8175645165  MEMB      124             0.0000000000
     16444       130  POPC      H13C            7.4283641057        7.3763021389       22.3441537169  MEMB      124             0.0000000000
     16445       130  POPC      C14            10.4677739856        6.8971488625       23.7350046790  MEMB      124             0.0000000000
     16446       130  POPC      H14A           10.9829539321        7.5140905080       23.0021454625  MEMB      124             0.0000000000
     16447       130  POPC      H14B           10.3292758246        7.4764374192       24.6359675892  MEMB      124             0.0000000000
     16448       130  POPC      H14C           11.0940590907        6.0385786860       23.9431261501  MEMB      124             0.0000000000
     16449       130  POPC      C15             9.3862048069        5.5163651922       22.0672604985  MEMB      124             0.0000000000
     16450       130  POPC      H15A            9.8336721396        4.5900994263       22.4035040807  MEMB      124             0.0000000000
     16451       130  POPC      H15B           10.0149067684        5.9687504842       21.3003572000  MEMB      124             0.0000000000
     16452       130  POPC      H15C            8.4234470950        5.2744239253       21.6207867868  MEMB      124             0.0000000000
     16453       130  POPC      C11             6.9996192456        5.2142396894       23.9556033785  MEMB      124             0.0000000000
     16454       130  POPC      H11A            6.5664204951        4.8028417568       24.9072528850  MEMB      124             0.0000000000
     16455       130  POPC      H11B            7.1640077046        4.3612956287       23.2603975439  MEMB      124             0.0000000000
     16456       130  POPC      P               4.6108849739        6.0710095857       23.5312939215  MEMB      124             0.0000000000
     16457       130  POPC      O13             4.2888560147        4.6558802531       23.2399814660  MEMB      124             0.0000000000
     16458       130  POPC      O14             3.8841052667        7.1125432345       22.7706910274  MEMB      124             0.0000000000
     16459       130  POPC      O12             6.1719629066        6.2149038859       23.3558021194  MEMB      124             0.0000000000
     16460       130  POPC      O11             4.4995884004        6.3690269029       25.0624284006  MEMB      124             0.0000000000
     16461       130  POPC      C1              4.9981662219        7.6473090895       25.4708029186  MEMB      124             0.0000000000
     16462       130  POPC      HA              4.3276086740        8.4609284781       25.1006637842  MEMB      124             0.0000000000
     16463       130  POPC      HB              6.0244292834        7.8728533485       25.0968779965  MEMB      124             0.0000000000
     16464       130  POPC      C2              4.9863216167        7.6876400746       27.0054399630  MEMB      124             0.0000000000
     16465       130  POPC      HS              5.4241113091        8.6581013128       27.3220126212  MEMB      124             0.0000000000
     16466       130  POPC      O21             5.7098336364        6.5886572744       27.6019913133  MEMB      124             0.0000000000
     16467       130  POPC      C21             7.0010402330        6.5775744587       27.3696670293  MEMB      124             0.0000000000
     16468       130  POPC      O22             7.6604788229        7.4669567514       26.8415584262  MEMB      124             0.0000000000
     16469       130  POPC      C22             7.6336189446        5.2724786258       27.8675326582  MEMB      124             0.0000000000
     16470       130  POPC      H2R             8.7281724611        5.4551039028       27.8822858789  MEMB      124             0.0000000000
     16471       130  POPC      H2S             7.4206408895        4.4856651565       27.1192388108  MEMB      124             0.0000000000
     16472       130  POPC      C3              3.4932149894        7.6212532654       27.4286815797  MEMB      124             0.0000000000
     16473       130  POPC      HX              3.1543311553        6.5702449977       27.2695214940  MEMB      124             0.0000000000
     16474       130  POPC      HY              2.8741246897        8.2596355103       26.7562383417  MEMB      124             0.0000000000
     16475       130  POPC      O31             3.2881182688        7.9918538851       28.7962769893  MEMB      124             0.0000000000
     16476       130  POPC      C31             3.5777392018        9.2531987832       29.0860723085  MEMB      124             0.0000000000
     16477       130  POPC      O32             3.8982842461       10.1199357424       28.2929238349  MEMB      124             0.0000000000
     16478       130  POPC      C32             3.4707892635        9.4965633447       30.5907330100  MEMB      124             0.0000000000
     16479       130  POPC      H2X             2.4618267800        9.9160496107       30.7806147649  MEMB      124             0.0000000000
     16480       130  POPC      H2Y             4.2211247060       10.2734687713       30.8405764175  MEMB      124             0.0000000000
     16481       130  POPC      C23             7.1863864751        4.7756570322       29.2658385262  MEMB      124             0.0000000000
     16482       130  POPC      H3R             6.1521504301        4.3682996796       29.1783399651  MEMB      124             0.0000000000
     16483       130  POPC      H3S             7.1547563379        5.6086707938       30.0021090753  MEMB      124             0.0000000000
     16484       130  POPC      C24             8.1121241068        3.6642883627       29.8003163933  MEMB      124             0.0000000000
     16485       130  POPC      H4R             8.4041742465        3.0066223580       28.9503910717  MEMB      124             0.0000000000
     16486       130  POPC      H4S             7.5547958633        3.0260451886       30.5236462663  MEMB      124             0.0000000000
     16487       130  POPC      C25             9.3749161382        4.1928389330       30.5078295620  MEMB      124             0.0000000000
     16488       130  POPC      H5R             9.7642437163        5.0851680060       29.9706590842  MEMB      124             0.0000000000
     16489       130  POPC      H5S            10.1667200113        3.4090854850       30.4787243666  MEMB      124             0.0000000000
     16490       130  POPC      C26             9.1152723574        4.5504956430       31.9799512914  MEMB      124             0.0000000000
     16491       130  POPC      H6R             8.7590595130        3.6368911440       32.5090728126  MEMB      124             0.0000000000
     16492       130  POPC      H6S             8.3045391980        5.3086483793       32.0343599043  MEMB      124             0.0000000000
     16493       130  POPC      C27            10.3498096885        5.0959128819       32.7178538896  MEMB      124             0.0000000000
     16494       130  POPC      H7R            10.6650921271        6.0523435386       32.2417371876  MEMB      124             0.0000000000
     16495       130  POPC      H7S            11.1835454574        4.3674757630       32.6022739537  MEMB      124             0.0000000000
     16496       130  POPC      C28            10.0621741775        5.3279243238       34.2157823112  MEMB      124             0.0000000000
     16497       130  POPC      H8R             9.6743900491        4.3771506895       34.6437649239  MEMB      124             0.0000000000
     16498       130  POPC      H8S             9.2370696238        6.0694826334       34.3042128137  MEMB      124             0.0000000000
     16499       130  POPC      C29            11.2747524698        5.7808056769       34.9879064156  MEMB      124             0.0000000000
     16500       130  POPC      H91            12.2173177087        5.8040484311       34.4180870379  MEMB      124             0.0000000000
     16501       130  POPC      C210           11.2736630821        6.1472355482       36.2829372052  MEMB      124             0.0000000000
     16502       130  POPC      H101           12.2155788968        6.4699163592       36.7551251655  MEMB      124             0.0000000000
     16503       130  POPC      C211           10.0588324817        6.1653342962       37.1752147811  MEMB      124             0.0000000000
     16504       130  POPC      H11R            9.7259794624        5.1215630764       37.3733701465  MEMB      124             0.0000000000
     16505       130  POPC      H11S            9.2114861283        6.6954915441       36.6814851250  MEMB      124             0.0000000000
     16506       130  POPC      C212           10.3278881041        6.8486102768       38.5301360721  MEMB      124             0.0000000000
     16507       130  POPC      H12R           10.4880343907        7.9380150166       38.3610300726  MEMB      124             0.0000000000
     16508       130  POPC      H12S           11.2557566857        6.4432274632       38.9934499978  MEMB      124             0.0000000000
     16509       130  POPC      C213            9.1747571007        6.6656797689       39.5315321129  MEMB      124             0.0000000000
     16510       130  POPC      H13R            8.2264322908        6.4776576653       38.9852773997  MEMB      124             0.0000000000
     16511       130  POPC      H13S            9.0454176172        7.6145569500       40.1018073682  MEMB      124             0.0000000000
     16512       130  POPC      C214            9.4476504799        5.5388165391       40.5428245452  MEMB      124             0.0000000000
     16513       130  POPC      H14R           10.4294541192        5.7523266605       41.0196609186  MEMB      124             0.0000000000
     16514       130  POPC      H14S            9.5443509883        4.5638398285       40.0173526890  MEMB      124             0.0000000000
     16515       130  POPC      C215            8.3870151409        5.4384804725       41.6507035714  MEMB      124             0.0000000000
     16516       130  POPC      H15R            7.6475842988        4.6471303374       41.3994778390  MEMB      124             0.0000000000
     16517       130  POPC      H15S            7.8475298613        6.4106866006       41.7059100216  MEMB      124             0.0000000000
     16518       130  POPC      C216            8.9883404053        5.1965637014       43.0420468246  MEMB      124             0.0000000000
     16519       130  POPC      H16R            9.7713177270        5.9683979022       43.2059942475  MEMB      124             0.0000000000
     16520       130  POPC      H16S            9.4775410269        4.2013081293       43.0767986251  MEMB      124             0.0000000000
     16521       130  POPC      C217            7.9692615798        5.3368826431       44.1829519853  MEMB      124             0.0000000000
     16522       130  POPC      H17R            7.4186999127        6.2971562291       44.0506474910  MEMB      124             0.0000000000
     16523       130  POPC      H17S            8.5263456373        5.4030369212       45.1469843231  MEMB      124             0.0000000000
     16524       130  POPC      C218            6.9666943231        4.1895254467       44.2816368372  MEMB      124             0.0000000000
     16525       130  POPC      H18R            7.4920674739        3.2295557244       44.4791562437  MEMB      124             0.0000000000
     16526       130  POPC      H18S            6.3894334964        4.0815852176       43.3384812802  MEMB      124             0.0000000000
     16527       130  POPC      H18T            6.2500725114        4.3699458791       45.1119768731  MEMB      124             0.0000000000
     16528       130  POPC      C33             3.6896424872        8.2428581400       31.4680250739  MEMB      124             0.0000000000
     16529       130  POPC      H3X             2.9660912347        7.4457832577       31.1876750828  MEMB      124             0.0000000000
     16530       130  POPC      H3Y             3.4673010479        8.5251240185       32.5232459175  MEMB      124             0.0000000000
     16531       130  POPC      C34             5.1280723110        7.7040379809       31.4220447169  MEMB      124             0.0000000000
     16532       130  POPC      H4X             5.8295361998        8.5375873399       31.6516533585  MEMB      124             0.0000000000
     16533       130  POPC      H4Y             5.3677598334        7.3356137936       30.3985259433  MEMB      124             0.0000000000
     16534       130  POPC      C35             5.3728293293        6.5777424874       32.4391355937  MEMB      124             0.0000000000
     16535       130  POPC      H5X             5.0693134136        6.9371200006       33.4463187934  MEMB      124             0.0000000000
     16536       130  POPC      H5Y             6.4616778638        6.3558596800       32.4847282720  MEMB      124             0.0000000000
     16537       130  POPC      C36             4.6240893983        5.2798235657       32.1046514386  MEMB      124             0.0000000000
     16538       130  POPC      H6X             4.9729735252        4.9066364466       31.1165370678  MEMB      124             0.0000000000
     16539       130  POPC      H6Y             3.5336350170        5.4809982819       32.0221288915  MEMB      124             0.0000000000
     16540       130  POPC      C37             4.8337907907        4.1672414679       33.1445554408  MEMB      124             0.0000000000
     16541       130  POPC      H7X             5.9179988240        3.9313388310       33.2232012232  MEMB      124             0.0000000000
     16542       130  POPC      H7Y             4.3226416486        3.2497460446       32.7740142616  MEMB      124             0.0000000000
     16543       130  POPC      C38             4.2662902600        4.5045067285       34.5301301383  MEMB      124             0.0000000000
     16544       130  POPC      H8X             3.5484340919        3.7055367897       34.8219499543  MEMB      124             0.0000000000
     16545       130  POPC      H8Y             3.6841120284        5.4510748758       34.4890561518  MEMB      124             0.0000000000
     16546       130  POPC      C39             5.3342488665        4.5997262972       35.6285845667  MEMB      124             0.0000000000
     16547       130  POPC      H9X             6.0141991286        5.4574598293       35.4309204155  MEMB      124             0.0000000000
     16548       130  POPC      H9Y             5.9478248449        3.6704228683       35.6152261348  MEMB      124             0.0000000000
     16549       130  POPC      C310            4.6826269236        4.7450430735       37.0093344400  MEMB      124             0.0000000000
     16550       130  POPC      H10X            3.9118926495        3.9472242552       37.1141904958  MEMB      124             0.0000000000
     16551       130  POPC      H10Y            4.1583281256        5.7240884653       37.0604758995  MEMB      124             0.0000000000
     16552       130  POPC      C311            5.6612774670        4.6101461686       38.1845034445  MEMB      124             0.0000000000
     16553       130  POPC      H11X            6.3789441718        5.4582959119       38.1776588844  MEMB      124             0.0000000000
     16554       130  POPC      H11Y            6.2477919005        3.6732052845       38.0475363658  MEMB      124             0.0000000000
     16555       130  POPC      C312            4.9356275891        4.5275257322       39.5410625911  MEMB      124             0.0000000000
     16556       130  POPC      H12X            5.6496540642        4.1791696741       40.3206428368  MEMB      124             0.0000000000
     16557       130  POPC      H12Y            4.1383475789        3.7573080056       39.4621102695  MEMB      124             0.0000000000
     16558       130  POPC      C313            4.3177034290        5.8602730744       39.9993370277  MEMB      124             0.0000000000
     16559       130  POPC      H13X            3.4926708362        5.6546142765       40.7187149287  MEMB      124             0.0000000000
     16560       130  POPC      H13Y            3.8746314529        6.3875353745       39.1302464998  MEMB      124             0.0000000000
     16561       130  POPC      C314            5.3665969755        6.7413560902       40.6930218868  MEMB      124             0.0000000000
     16562       130  POPC      H14X            6.3266454772        6.6525059817       40.1421225842  MEMB      124             0.0000000000
     16563       130  POPC      H14Y            5.5196607720        6.3322850589       41.7187566668  MEMB      124             0.0000000000
     16564       130  POPC      C315            5.0383179600        8.2360597853       40.7966853837  MEMB      124             0.0000000000
     16565       130  POPC      H15X            5.6377470026        8.6544343841       41.6382577808  MEMB      124             0.0000000000
     16566       130  POPC      H15Y            3.9764612357        8.3692501154       41.0721058443  MEMB      124             0.0000000000
     16567       130  POPC      C316            5.3660729964        9.0478957537       39.5393582355  MEMB      124             0.0000000000
     16568       130  POPC      H16X            4.8888854539        8.5980775759       38.6435505685  MEMB      124             0.0000000000
     16569       130  POPC      H16Y            6.4636889333        9.0680610176       39.3692032920  MEMB      124             0.0000000000
     16570       130  POPC      H16Z            5.0007670768       10.0923399998       39.6463491228  MEMB      124             0.0000000000
     16571       131  POPC      N              52.4587937646       66.2828082255       23.4195968008  MEMB      125             0.0000000000
     16572       131  POPC      C12            52.1060156957       65.1059795333       22.5219941124  MEMB      125             0.0000000000
     16573       131  POPC      H12A           51.8057156241       64.2558876486       23.1443222116  MEMB      125             0.0000000000
     16574       131  POPC      H12B           52.9840324382       64.8115497673       21.9603104774  MEMB      125             0.0000000000
     16575       131  POPC      C13            51.3468165078       66.5072101251       24.3822355667  MEMB      125             0.0000000000
     16576       131  POPC      H13A           51.1196470908       65.5916937630       24.9321327721  MEMB      125             0.0000000000
     16577       131  POPC      H13B           51.5284317200       67.3085131048       25.0730089304  MEMB      125             0.0000000000
     16578       131  POPC      H13C           50.4302215692       66.7067787664       23.8215573271  MEMB      125             0.0000000000
     16579       131  POPC      C14            53.7036886120       65.9698933163       24.1787329926  MEMB      125             0.0000000000
     16580       131  POPC      H14A           53.9702162577       66.8161811476       24.7936172240  MEMB      125             0.0000000000
     16581       131  POPC      H14B           53.5450795151       65.1140429363       24.8305633811  MEMB      125             0.0000000000
     16582       131  POPC      H14C           54.5003279604       65.7550568160       23.4783002013  MEMB      125             0.0000000000
     16583       131  POPC      C15            52.6181233648       67.5226164774       22.5858765563  MEMB      125             0.0000000000
     16584       131  POPC      H15A           53.3889872889       67.4112421472       21.8341769995  MEMB      125             0.0000000000
     16585       131  POPC      H15B           52.8064570790       68.3981337983       23.1839196771  MEMB      125             0.0000000000
     16586       131  POPC      H15C           51.6738364535       67.7123036922       22.0638902741  MEMB      125             0.0000000000
     16587       131  POPC      C11            50.9664190414       65.3041822488       21.4838743269  MEMB      125             0.0000000000
     16588       131  POPC      H11A           50.9172991785       64.3944502809       20.8456947242  MEMB      125             0.0000000000
     16589       131  POPC      H11B           51.2369112826       66.1467597089       20.8104311805  MEMB      125             0.0000000000
     16590       131  POPC      P              48.9365653638       64.5184801097       22.9849452265  MEMB      125             0.0000000000
     16591       131  POPC      O13            47.7884295349       64.0175369647       22.2017494504  MEMB      125             0.0000000000
     16592       131  POPC      O14            48.7135747462       65.1633349415       24.2958755064  MEMB      125             0.0000000000
     16593       131  POPC      O12            49.6927465516       65.5677204664       22.0652602767  MEMB      125             0.0000000000
     16594       131  POPC      O11            50.0462163922       63.4048085746       23.0798618160  MEMB      125             0.0000000000
     16595       131  POPC      C1             49.8428907168       62.2238637215       23.8466304185  MEMB      125             0.0000000000
     16596       131  POPC      HA             50.1626193411       61.3597962177       23.2383303648  MEMB      125             0.0000000000
     16597       131  POPC      HB             48.7666620944       62.0504161233       24.1041655599  MEMB      125             0.0000000000
     16598       131  POPC      C2             50.6639499660       62.2595674715       25.1591237539  MEMB      125             0.0000000000
     16599       131  POPC      HS             50.2510326015       61.4873480166       25.8539728601  MEMB      125             0.0000000000
     16600       131  POPC      O21            50.6235438725       63.5891811127       25.6823250535  MEMB      125             0.0000000000
     16601       131  POPC      C21            49.9057903957       63.7484290928       26.7562479926  MEMB      125             0.0000000000
     16602       131  POPC      O22            49.2400405593       62.9257257219       27.3523546508  MEMB      125             0.0000000000
     16603       131  POPC      C22            50.2160171730       65.1569368454       27.2318766756  MEMB      125             0.0000000000
     16604       131  POPC      H2R            49.4832711256       65.8640170710       26.7909892811  MEMB      125             0.0000000000
     16605       131  POPC      H2S            51.2388151144       65.4281207929       26.8853522074  MEMB      125             0.0000000000
     16606       131  POPC      C3             52.1753280207       61.9257313212       24.9644269909  MEMB      125             0.0000000000
     16607       131  POPC      HX             52.4370758311       62.1869840353       23.9176100105  MEMB      125             0.0000000000
     16608       131  POPC      HY             52.3415772155       60.8394653315       25.0811940122  MEMB      125             0.0000000000
     16609       131  POPC      O31            53.0543994543       62.6503599796       25.8635566644  MEMB      125             0.0000000000
     16610       131  POPC      C31            52.8458942049       62.3387411765       27.1507223768  MEMB      125             0.0000000000
     16611       131  POPC      O32            52.0801482483       61.4974317078       27.5731913703  MEMB      125             0.0000000000
     16612       131  POPC      C32            53.7344081376       63.1900724783       28.0445207999  MEMB      125             0.0000000000
     16613       131  POPC      H2X            53.9047375248       64.1823757468       27.5871549169  MEMB      125             0.0000000000
     16614       131  POPC      H2Y            54.6973860749       62.6477716738       28.1166321251  MEMB      125             0.0000000000
     16615       131  POPC      C23            50.2151404133       65.2264993789       28.7529825137  MEMB      125             0.0000000000
     16616       131  POPC      H3R            50.6290385166       64.2981419267       29.1980954710  MEMB      125             0.0000000000
     16617       131  POPC      H3S            49.1621871887       65.2684518067       29.1109335032  MEMB      125             0.0000000000
     16618       131  POPC      C24            51.0000829290       66.4553175310       29.2077499552  MEMB      125             0.0000000000
     16619       131  POPC      H4R            50.7509785784       67.2938674695       28.5122556448  MEMB      125             0.0000000000
     16620       131  POPC      H4S            52.0998585574       66.3091599687       29.1756186945  MEMB      125             0.0000000000
     16621       131  POPC      C25            50.5362228260       66.8768920243       30.5812237765  MEMB      125             0.0000000000
     16622       131  POPC      H5R            49.4631859754       67.0547935724       30.4294872176  MEMB      125             0.0000000000
     16623       131  POPC      H5S            50.9961218149       67.8359349289       30.9040744091  MEMB      125             0.0000000000
     16624       131  POPC      C26            50.5852229731       65.8063217064       31.6626114599  MEMB      125             0.0000000000
     16625       131  POPC      H6R            51.2520669184       64.9597772941       31.4098834591  MEMB      125             0.0000000000
     16626       131  POPC      H6S            49.5677546207       65.3572108349       31.7555776925  MEMB      125             0.0000000000
     16627       131  POPC      C27            50.9902720430       66.4367843920       32.9897851546  MEMB      125             0.0000000000
     16628       131  POPC      H7R            50.7470268692       67.5258787224       32.9737963853  MEMB      125             0.0000000000
     16629       131  POPC      H7S            52.0842631555       66.3701824844       33.1200100647  MEMB      125             0.0000000000
     16630       131  POPC      C28            50.2069000560       65.8609849189       34.1609075209  MEMB      125             0.0000000000
     16631       131  POPC      H8R            49.1799824470       66.2808379516       34.0451681919  MEMB      125             0.0000000000
     16632       131  POPC      H8S            50.6298730910       66.2987484866       35.0952537077  MEMB      125             0.0000000000
     16633       131  POPC      C29            50.0906376539       64.3566876677       34.2279299413  MEMB      125             0.0000000000
     16634       131  POPC      H91            50.1702744462       63.8008712427       33.2809100276  MEMB      125             0.0000000000
     16635       131  POPC      C210           49.8869831294       63.6903411780       35.3729409163  MEMB      125             0.0000000000
     16636       131  POPC      H101           49.7160885687       62.6029683571       35.3792447676  MEMB      125             0.0000000000
     16637       131  POPC      C211           49.7597703174       64.3842275717       36.6889675339  MEMB      125             0.0000000000
     16638       131  POPC      H11R           50.6102899359       65.0764494130       36.8382353697  MEMB      125             0.0000000000
     16639       131  POPC      H11S           49.8236426290       63.6657927289       37.5313508549  MEMB      125             0.0000000000
     16640       131  POPC      C212           48.4722325137       65.2165563920       36.7190590619  MEMB      125             0.0000000000
     16641       131  POPC      H12R           48.3870345630       65.8972869780       35.8558718737  MEMB      125             0.0000000000
     16642       131  POPC      H12S           48.5422120251       65.8824176456       37.5851308667  MEMB      125             0.0000000000
     16643       131  POPC      C213           47.1856516490       64.4073059702       36.8343245385  MEMB      125             0.0000000000
     16644       131  POPC      H13R           46.9933326033       63.8827203280       35.8701248912  MEMB      125             0.0000000000
     16645       131  POPC      H13S           46.3242968916       65.0797152839       37.0173995358  MEMB      125             0.0000000000
     16646       131  POPC      C214           47.2706823402       63.4089045227       37.9780974417  MEMB      125             0.0000000000
     16647       131  POPC      H14R           48.0219123558       62.6569580035       37.6555736497  MEMB      125             0.0000000000
     16648       131  POPC      H14S           46.2858018894       62.8994364535       38.0758352579  MEMB      125             0.0000000000
     16649       131  POPC      C215           47.6928325766       63.9853566710       39.3483559888  MEMB      125             0.0000000000
     16650       131  POPC      H15R           48.4173194320       64.8111158767       39.2546814006  MEMB      125             0.0000000000
     16651       131  POPC      H15S           48.2152878964       63.1910465763       39.9215959642  MEMB      125             0.0000000000
     16652       131  POPC      C216           46.4470338795       64.4307477473       40.1112815028  MEMB      125             0.0000000000
     16653       131  POPC      H16R           45.9554947449       63.4748783085       40.3751426246  MEMB      125             0.0000000000
     16654       131  POPC      H16S           45.7624660032       64.9517135262       39.4117039438  MEMB      125             0.0000000000
     16655       131  POPC      C217           46.5857230134       65.2639981903       41.4018559990  MEMB      125             0.0000000000
     16656       131  POPC      H17R           46.6680143587       64.5427154224       42.2384652633  MEMB      125             0.0000000000
     16657       131  POPC      H17S           45.6228342891       65.7942818676       41.5550271872  MEMB      125             0.0000000000
     16658       131  POPC      C218           47.6893432125       66.3175065134       41.5348118928  MEMB      125             0.0000000000
     16659       131  POPC      H18R           47.4120210342       67.2706970422       41.0505556282  MEMB      125             0.0000000000
     16660       131  POPC      H18S           48.6365858526       65.9807897376       41.0844801845  MEMB      125             0.0000000000
     16661       131  POPC      H18T           47.8753827535       66.5244417660       42.6130768004  MEMB      125             0.0000000000
     16662       131  POPC      C33            53.1826033150       63.3375995099       29.4816893753  MEMB      125             0.0000000000
     16663       131  POPC      H3X            52.6095689251       62.4442868675       29.8176357997  MEMB      125             0.0000000000
     16664       131  POPC      H3Y            52.5283434566       64.2239147644       29.5140986718  MEMB      125             0.0000000000
     16665       131  POPC      C34            54.3081618049       63.6185477656       30.4679823404  MEMB      125             0.0000000000
     16666       131  POPC      H4X            55.0158504682       64.2698806496       29.9068544855  MEMB      125             0.0000000000
     16667       131  POPC      H4Y            54.8262833652       62.6765551206       30.7558016972  MEMB      125             0.0000000000
     16668       131  POPC      C35            53.8949566301       64.4217324185       31.7003371610  MEMB      125             0.0000000000
     16669       131  POPC      H5X            53.3328969893       63.7946836991       32.4239754665  MEMB      125             0.0000000000
     16670       131  POPC      H5Y            53.2301314836       65.2475748612       31.3681833082  MEMB      125             0.0000000000
     16671       131  POPC      C36            55.1118331218       65.0902397094       32.3466202235  MEMB      125             0.0000000000
     16672       131  POPC      H6X            55.0360690330       66.1839998907       32.1774013081  MEMB      125             0.0000000000
     16673       131  POPC      H6Y            56.0296031563       64.7358526478       31.8331837716  MEMB      125             0.0000000000
     16674       131  POPC      C37            55.2575086846       64.8401537693       33.8419622159  MEMB      125             0.0000000000
     16675       131  POPC      H7X            56.2683001650       65.1820451915       34.1597744729  MEMB      125             0.0000000000
     16676       131  POPC      H7Y            55.1752897660       63.7510997475       34.0474344762  MEMB      125             0.0000000000
     16677       131  POPC      C38            54.2056209612       65.6235834556       34.6205813486  MEMB      125             0.0000000000
     16678       131  POPC      H8X            53.1999731318       65.2591572593       34.3190143235  MEMB      125             0.0000000000
     16679       131  POPC      H8Y            54.2804191752       66.7013168394       34.3514791994  MEMB      125             0.0000000000
     16680       131  POPC      C39            54.3105825540       65.4726034405       36.1332348098  MEMB      125             0.0000000000
     16681       131  POPC      H9X            53.9195219174       66.4163148311       36.5732130442  MEMB      125             0.0000000000
     16682       131  POPC      H9Y            55.3667697741       65.3702060438       36.4534102251  MEMB      125             0.0000000000
     16683       131  POPC      C310           53.4622007990       64.2824244123       36.5961544832  MEMB      125             0.0000000000
     16684       131  POPC      H10X           53.9297399152       63.3325885218       36.2675025002  MEMB      125             0.0000000000
     16685       131  POPC      H10Y           52.4823880888       64.3397649071       36.0760875484  MEMB      125             0.0000000000
     16686       131  POPC      C311           53.1737884054       64.2587926849       38.0952316307  MEMB      125             0.0000000000
     16687       131  POPC      H11X           54.0728966960       63.9770662155       38.6804780710  MEMB      125             0.0000000000
     16688       131  POPC      H11Y           52.4001363513       63.4799940924       38.2870664983  MEMB      125             0.0000000000
     16689       131  POPC      C312           52.6828293483       65.6114008201       38.6106938873  MEMB      125             0.0000000000
     16690       131  POPC      H12X           52.0706561945       66.1242751466       37.8385487064  MEMB      125             0.0000000000
     16691       131  POPC      H12Y           53.5613876948       66.2614576896       38.8279933709  MEMB      125             0.0000000000
     16692       131  POPC      C313           51.8483174992       65.4530002472       39.8672299528  MEMB      125             0.0000000000
     16693       131  POPC      H13X           50.9805348280       64.7823772766       39.6716690894  MEMB      125             0.0000000000
     16694       131  POPC      H13Y           51.4481390090       66.4556106764       40.1332424173  MEMB      125             0.0000000000
     16695       131  POPC      C314           52.7028644500       64.8863330945       40.9980104029  MEMB      125             0.0000000000
     16696       131  POPC      H14X           53.5728068691       65.5604395222       41.1552875934  MEMB      125             0.0000000000
     16697       131  POPC      H14Y           53.1030025854       63.8840663824       40.7233977974  MEMB      125             0.0000000000
     16698       131  POPC      C315           51.9161258864       64.7334142857       42.2900799030  MEMB      125             0.0000000000
     16699       131  POPC      H15X           52.6135164890       64.4209410740       43.0903181365  MEMB      125             0.0000000000
     16700       131  POPC      H15Y           51.2286418732       63.8780134321       42.1300359285  MEMB      125             0.0000000000
     16701       131  POPC      C316           51.1297763421       65.9878383028       42.6956449721  MEMB      125             0.0000000000
     16702       131  POPC      H16X           51.7647415043       66.8938378724       42.6928065289  MEMB      125             0.0000000000
     16703       131  POPC      H16Y           50.6675074821       65.8679626818       43.6976550194  MEMB      125             0.0000000000
     16704       131  POPC      H16Z           50.3242799040       66.1784615030       41.9728114132  MEMB      125             0.0000000000
     16705       132  POPC      N               6.3383376136       61.0149565211       21.9395702471  MEMB      126             0.0000000000
     16706       132  POPC      C12             7.1405287359       62.2542095239       21.5840284883  MEMB      126             0.0000000000
     16707       132  POPC      H12A            6.7942993197       62.6621392119       20.6377876584  MEMB      126             0.0000000000
     16708       132  POPC      H12B            8.1706181759       61.9612937042       21.4336481280  MEMB      126             0.0000000000
     16709       132  POPC      C13             6.1484220302       60.1568909618       20.7239152506  MEMB      126             0.0000000000
     16710       132  POPC      H13A            5.5110198866       60.6479842022       19.9990855610  MEMB      126             0.0000000000
     16711       132  POPC      H13B            7.0966681681       59.9540945753       20.2441429300  MEMB      126             0.0000000000
     16712       132  POPC      H13C            5.7362642903       59.1823997928       20.9797724418  MEMB      126             0.0000000000
     16713       132  POPC      C14             7.0705096969       60.2296808176       22.9834803420  MEMB      126             0.0000000000
     16714       132  POPC      H14A            7.1220076975       60.7822292159       23.9117606973  MEMB      126             0.0000000000
     16715       132  POPC      H14B            6.5824359562       59.2717240284       23.2001789727  MEMB      126             0.0000000000
     16716       132  POPC      H14C            8.0859628258       59.9905949375       22.6951511950  MEMB      126             0.0000000000
     16717       132  POPC      C15             4.9944587084       61.3794167912       22.4696437229  MEMB      126             0.0000000000
     16718       132  POPC      H15A            4.4901124836       60.4923036298       22.8361202571  MEMB      126             0.0000000000
     16719       132  POPC      H15B            4.3546334323       61.8043612483       21.7100215038  MEMB      126             0.0000000000
     16720       132  POPC      H15C            5.1129577681       62.0895672640       23.2839541283  MEMB      126             0.0000000000
     16721       132  POPC      C11             7.1716249499       63.4477312919       22.5572843154  MEMB      126             0.0000000000
     16722       132  POPC      H11A            6.1229142229       63.8107791776       22.6759223628  MEMB      126             0.0000000000
     16723       132  POPC      H11B            7.7611455625       64.2665272852       22.0790119001  MEMB      126             0.0000000000
     16724       132  POPC      P               7.3699897972       63.8332069625       25.0907281451  MEMB      126             0.0000000000
     16725       132  POPC      O13             7.5764025565       65.2880280402       24.8917620432  MEMB      126             0.0000000000
     16726       132  POPC      O14             7.9092521847       63.1938304836       26.2906386673  MEMB      126             0.0000000000
     16727       132  POPC      O12             7.7989892792       63.0754220258       23.7799468969  MEMB      126             0.0000000000
     16728       132  POPC      O11             5.8075628718       63.6349784572       25.0697135000  MEMB      126             0.0000000000
     16729       132  POPC      C1              5.3075456023       62.4727189737       25.7347696974  MEMB      126             0.0000000000
     16730       132  POPC      HA              5.7243001676       62.3679210565       26.7691961715  MEMB      126             0.0000000000
     16731       132  POPC      HB              5.5734672263       61.5518805109       25.1688209698  MEMB      126             0.0000000000
     16732       132  POPC      C2              3.7781301146       62.5486135134       25.9161157322  MEMB      126             0.0000000000
     16733       132  POPC      HS              3.3089214297       62.8625202749       24.9549698211  MEMB      126             0.0000000000
     16734       132  POPC      O21             3.4892261575       63.4798313015       26.9645244357  MEMB      126             0.0000000000
     16735       132  POPC      C21             3.6891066183       64.7490310020       26.6603745284  MEMB      126             0.0000000000
     16736       132  POPC      O22             3.6618740453       65.2126309283       25.5283411609  MEMB      126             0.0000000000
     16737       132  POPC      C22             4.0105876046       65.5148845463       27.9366715406  MEMB      126             0.0000000000
     16738       132  POPC      H2R             3.0955605591       65.4459674367       28.5596564709  MEMB      126             0.0000000000
     16739       132  POPC      H2S             4.1888536068       66.5810514164       27.6962782693  MEMB      126             0.0000000000
     16740       132  POPC      C3              3.1918457199       61.1616430292       26.3006080500  MEMB      126             0.0000000000
     16741       132  POPC      HX              3.1730648499       60.5230399975       25.3883655576  MEMB      126             0.0000000000
     16742       132  POPC      HY              2.1353938503       61.3233681123       26.6082291233  MEMB      126             0.0000000000
     16743       132  POPC      O31             3.8961139828       60.5466095163       27.4011268349  MEMB      126             0.0000000000
     16744       132  POPC      C31             4.8190150419       59.6261113095       27.0855690622  MEMB      126             0.0000000000
     16745       132  POPC      O32             5.1190365465       59.3031088856       25.9547053540  MEMB      126             0.0000000000
     16746       132  POPC      C32             5.4419731666       59.1073748508       28.3892972456  MEMB      126             0.0000000000
     16747       132  POPC      H2X             5.9432691775       58.1542051655       28.1549114497  MEMB      126             0.0000000000
     16748       132  POPC      H2Y             4.5956950354       58.8988045975       29.0754894432  MEMB      126             0.0000000000
     16749       132  POPC      C23             5.2410462530       64.9009733653       28.6581209198  MEMB      126             0.0000000000
     16750       132  POPC      H3R             6.1330269133       64.9623675148       27.9926237130  MEMB      126             0.0000000000
     16751       132  POPC      H3S             5.0559951131       63.8191502365       28.8569806028  MEMB      126             0.0000000000
     16752       132  POPC      C24             5.6036158202       65.5596633427       30.0022807597  MEMB      126             0.0000000000
     16753       132  POPC      H4R             5.9131473512       66.6120378461       29.8244057359  MEMB      126             0.0000000000
     16754       132  POPC      H4S             6.4719224902       65.0186651777       30.4393406856  MEMB      126             0.0000000000
     16755       132  POPC      C25             4.4401393634       65.5181697438       30.9928832217  MEMB      126             0.0000000000
     16756       132  POPC      H5R             4.2344401342       64.4720616384       31.3084708301  MEMB      126             0.0000000000
     16757       132  POPC      H5S             3.5432592878       65.8973727403       30.4582890056  MEMB      126             0.0000000000
     16758       132  POPC      C26             4.5575054112       66.4517381705       32.1995987785  MEMB      126             0.0000000000
     16759       132  POPC      H6R             3.5187930382       66.8097787594       32.3924755481  MEMB      126             0.0000000000
     16760       132  POPC      H6S             5.1721758958       67.3403175574       31.9429247774  MEMB      126             0.0000000000
     16761       132  POPC      C27             5.0657006468       65.7896561025       33.4879603772  MEMB      126             0.0000000000
     16762       132  POPC      H7R             6.1399085193       65.5294024696       33.3565142849  MEMB      126             0.0000000000
     16763       132  POPC      H7S             4.5104167643       64.8408022419       33.6650013286  MEMB      126             0.0000000000
     16764       132  POPC      C28             4.9099712837       66.7066600387       34.7203729015  MEMB      126             0.0000000000
     16765       132  POPC      H8R             5.4575883514       67.6527458926       34.5119033780  MEMB      126             0.0000000000
     16766       132  POPC      H8S             5.4323669906       66.2260912306       35.5767296353  MEMB      126             0.0000000000
     16767       132  POPC      C29             3.4641535085       67.0147714999       35.0465037822  MEMB      126             0.0000000000
     16768       132  POPC      H91             2.9090366860       67.5281137959       34.2462558535  MEMB      126             0.0000000000
     16769       132  POPC      C210            2.8197713450       66.7605394888       36.1998849170  MEMB      126             0.0000000000
     16770       132  POPC      H101            1.7624530748       67.0562202553       36.2912001251  MEMB      126             0.0000000000
     16771       132  POPC      C211            3.4223974125       66.1055200756       37.4179845947  MEMB      126             0.0000000000
     16772       132  POPC      H11R            4.1947884212       65.3650887276       37.1156088213  MEMB      126             0.0000000000
     16773       132  POPC      H11S            2.6553916375       65.5363927399       37.9802498080  MEMB      126             0.0000000000
     16774       132  POPC      C212            4.0716058680       67.1398977600       38.3580903566  MEMB      126             0.0000000000
     16775       132  POPC      H12R            3.2943405298       67.7513614654       38.8623315562  MEMB      126             0.0000000000
     16776       132  POPC      H12S            4.6860486027       67.8305847918       37.7304709506  MEMB      126             0.0000000000
     16777       132  POPC      C213            5.0396713305       66.5260543434       39.3863779594  MEMB      126             0.0000000000
     16778       132  POPC      H13R            5.7085128241       67.3284948820       39.7682600094  MEMB      126             0.0000000000
     16779       132  POPC      H13S            5.6807457629       65.8002564711       38.8334545011  MEMB      126             0.0000000000
     16780       132  POPC      C214            4.4090992519       65.7906977569       40.5861896246  MEMB      126             0.0000000000
     16781       132  POPC      H14R            5.0315522603       64.8810385824       40.7587171495  MEMB      126             0.0000000000
     16782       132  POPC      H14S            3.3834718008       65.4427283356       40.3419523686  MEMB      126             0.0000000000
     16783       132  POPC      C215            4.4113887340       66.5770072152       41.9159124187  MEMB      126             0.0000000000
     16784       132  POPC      H15R            3.6629668404       67.3776220897       41.8804867531  MEMB      126             0.0000000000
     16785       132  POPC      H15S            5.3473776156       67.1416035775       42.0540279175  MEMB      126             0.0000000000
     16786       132  POPC      C216            4.1779870544       65.6709256556       43.1424493521  MEMB      126             0.0000000000
     16787       132  POPC      H16R            4.4401777534       64.6262854143       42.8593745634  MEMB      126             0.0000000000
     16788       132  POPC      H16S            3.0960808389       65.6552804634       43.3661766322  MEMB      126             0.0000000000
     16789       132  POPC      C217            5.0086410458       65.9858148437       44.4092831497  MEMB      126             0.0000000000
     16790       132  POPC      H17R            6.0307335705       65.5921770952       44.2157017745  MEMB      126             0.0000000000
     16791       132  POPC      H17S            4.6007226811       65.3921634965       45.2605479072  MEMB      126             0.0000000000
     16792       132  POPC      C218            5.1441887499       67.4479469103       44.8523435110  MEMB      126             0.0000000000
     16793       132  POPC      H18R            4.2880104143       67.7648368904       45.4823494614  MEMB      126             0.0000000000
     16794       132  POPC      H18S            5.2126652337       68.1283768665       43.9789562828  MEMB      126             0.0000000000
     16795       132  POPC      H18T            6.0700334435       67.5701411844       45.4580468284  MEMB      126             0.0000000000
     16796       132  POPC      C33             6.4610734632       60.0737530920       29.0475292146  MEMB      126             0.0000000000
     16797       132  POPC      H3X             6.1375222291       61.1341007444       28.9308902281  MEMB      126             0.0000000000
     16798       132  POPC      H3Y             7.4439384451       59.9784072591       28.5283056359  MEMB      126             0.0000000000
     16799       132  POPC      C34             6.6785315379       59.8094019561       30.5530116517  MEMB      126             0.0000000000
     16800       132  POPC      H4X             7.4885124614       60.4938816225       30.8988543381  MEMB      126             0.0000000000
     16801       132  POPC      H4Y             7.0458120022       58.7706817779       30.7073442052  MEMB      126             0.0000000000
     16802       132  POPC      C35             5.4244381271       60.0565573752       31.4118274359  MEMB      126             0.0000000000
     16803       132  POPC      H5X             4.6740388640       59.2557065822       31.2321824101  MEMB      126             0.0000000000
     16804       132  POPC      H5Y             4.9702599993       61.0216281354       31.0898171703  MEMB      126             0.0000000000
     16805       132  POPC      C36             5.7041699065       60.1499244065       32.9178823024  MEMB      126             0.0000000000
     16806       132  POPC      H6X             4.8484033267       60.6642895464       33.4119028922  MEMB      126             0.0000000000
     16807       132  POPC      H6Y             6.6113311086       60.7735401481       33.0838875762  MEMB      126             0.0000000000
     16808       132  POPC      C37             5.8875755872       58.7821917462       33.5878389759  MEMB      126             0.0000000000
     16809       132  POPC      H7X             6.5938261594       58.1739788647       32.9783036683  MEMB      126             0.0000000000
     16810       132  POPC      H7Y             4.9149460566       58.2437698959       33.6251467915  MEMB      126             0.0000000000
     16811       132  POPC      C38             6.4662040890       58.8988042859       35.0012628943  MEMB      126             0.0000000000
     16812       132  POPC      H8X             7.3902209218       59.5133813475       34.9420608271  MEMB      126             0.0000000000
     16813       132  POPC      H8Y             6.7614881145       57.8854849849       35.3576507100  MEMB      126             0.0000000000
     16814       132  POPC      C39             5.5017822868       59.5117836453       36.0253326261  MEMB      126             0.0000000000
     16815       132  POPC      H9X             4.5913284483       58.8715153020       36.0709039166  MEMB      126             0.0000000000
     16816       132  POPC      H9Y             5.1873806656       60.5276020969       35.7064192115  MEMB      126             0.0000000000
     16817       132  POPC      C310            6.1191349627       59.5896856669       37.4262774435  MEMB      126             0.0000000000
     16818       132  POPC      H10X            6.5485144833       58.5895999205       37.6693714390  MEMB      126             0.0000000000
     16819       132  POPC      H10Y            5.3279515059       59.8061118772       38.1774584972  MEMB      126             0.0000000000
     16820       132  POPC      C311            7.2316956049       60.6337109039       37.5649798035  MEMB      126             0.0000000000
     16821       132  POPC      H11X            7.9356659966       60.5540287536       36.7098846617  MEMB      126             0.0000000000
     16822       132  POPC      H11Y            7.8181721829       60.3890777094       38.4769674607  MEMB      126             0.0000000000
     16823       132  POPC      C312            6.7339749961       62.0819251058       37.6793891025  MEMB      126             0.0000000000
     16824       132  POPC      H12X            5.8335238494       62.1220678029       38.3331263901  MEMB      126             0.0000000000
     16825       132  POPC      H12Y            6.4392995026       62.4376520429       36.6675051628  MEMB      126             0.0000000000
     16826       132  POPC      C313            7.7967480255       63.0299787972       38.2587461643  MEMB      126             0.0000000000
     16827       132  POPC      H13X            7.8075413406       62.9156099129       39.3615453863  MEMB      126             0.0000000000
     16828       132  POPC      H13Y            7.5009710526       64.0847950101       38.0606810931  MEMB      126             0.0000000000
     16829       132  POPC      C314            9.2022264879       62.7778187642       37.6906425626  MEMB      126             0.0000000000
     16830       132  POPC      H14X            9.1743776203       63.0906386836       36.6315230203  MEMB      126             0.0000000000
     16831       132  POPC      H14Y            9.4826218646       61.7027257029       37.7168076015  MEMB      126             0.0000000000
     16832       132  POPC      C315           10.3046529709       63.5160160168       38.4423438814  MEMB      126             0.0000000000
     16833       132  POPC      H15X           10.0396032538       64.5913568065       38.4904759993  MEMB      126             0.0000000000
     16834       132  POPC      H15Y           11.2568649576       63.4482723536       37.8668181421  MEMB      126             0.0000000000
     16835       132  POPC      C316           10.5336162656       62.9594422113       39.8460969779  MEMB      126             0.0000000000
     16836       132  POPC      H16X           11.1361561510       63.6851392761       40.4283526719  MEMB      126             0.0000000000
     16837       132  POPC      H16Y           11.0755040282       61.9890840637       39.8029203305  MEMB      126             0.0000000000
     16838       132  POPC      H16Z            9.5877821698       62.7937315889       40.3984682775  MEMB      126             0.0000000000
     16839       133  POPC      N              65.5190537655        8.0454320371       22.1983019099  MEMB      127             0.0000000000
     16840       133  POPC      C12            64.3674267515        9.0126431794       22.0261502716  MEMB      127             0.0000000000
     16841       133  POPC      H12A           63.5048279197        8.4700715397       21.6434889658  MEMB      127             0.0000000000
     16842       133  POPC      H12B           64.6200087823        9.7549069251       21.2842631244  MEMB      127             0.0000000000
     16843       133  POPC      C13            66.6919967779        8.7625628455       22.8060608727  MEMB      127             0.0000000000
     16844       133  POPC      H13A           67.5802047689        8.1517431047       22.9080961258  MEMB      127             0.0000000000
     16845       133  POPC      H13B           66.9717328101        9.6381038358       22.2281794507  MEMB      127             0.0000000000
     16846       133  POPC      H13C           66.3965041619        9.1923885282       23.7674349905  MEMB      127             0.0000000000
     16847       133  POPC      C14            65.1271540200        6.9167611154       23.0966018628  MEMB      127             0.0000000000
     16848       133  POPC      H14A           64.8650432819        7.3080663198       24.0695415567  MEMB      127             0.0000000000
     16849       133  POPC      H14B           64.2943441233        6.3563213646       22.6843204333  MEMB      127             0.0000000000
     16850       133  POPC      H14C           65.9672860709        6.2321147388       23.1987925031  MEMB      127             0.0000000000
     16851       133  POPC      C15            65.9124061684        7.4863581052       20.8677705200  MEMB      127             0.0000000000
     16852       133  POPC      H15A           66.6289190151        6.6833743313       21.0191696489  MEMB      127             0.0000000000
     16853       133  POPC      H15B           66.3426410364        8.2249633591       20.2062627617  MEMB      127             0.0000000000
     16854       133  POPC      H15C           65.0728325173        7.0436630622       20.3517058963  MEMB      127             0.0000000000
     16855       133  POPC      C11            63.9052335237        9.7768237114       23.2828852523  MEMB      127             0.0000000000
     16856       133  POPC      H11A           63.5752513529        9.0157915175       24.0223547471  MEMB      127             0.0000000000
     16857       133  POPC      H11B           62.9963758066       10.3542542892       22.9756695240  MEMB      127             0.0000000000
     16858       133  POPC      P              64.5444915131       12.0546677757       24.4522946380  MEMB      127             0.0000000000
     16859       133  POPC      O13            64.7300499329       13.0453854894       23.3668529230  MEMB      127             0.0000000000
     16860       133  POPC      O14            65.2906712090       12.3398555764       25.6890838871  MEMB      127             0.0000000000
     16861       133  POPC      O12            64.9119708598       10.6093272194       23.8834711255  MEMB      127             0.0000000000
     16862       133  POPC      O11            63.0001929516       11.9986640048       24.8207105713  MEMB      127             0.0000000000
     16863       133  POPC      C1             62.4809288917       10.8994237765       25.5878903195  MEMB      127             0.0000000000
     16864       133  POPC      HA             63.2480336691       10.1186408118       25.8060059437  MEMB      127             0.0000000000
     16865       133  POPC      HB             61.6667215663       10.4127967444       24.9997640988  MEMB      127             0.0000000000
     16866       133  POPC      C2             61.9063349108       11.2687950941       26.9761734425  MEMB      127             0.0000000000
     16867       133  POPC      HS             61.0030421338       11.8946660045       26.7891897466  MEMB      127             0.0000000000
     16868       133  POPC      O21            62.8992493763       11.9187975207       27.7977380990  MEMB      127             0.0000000000
     16869       133  POPC      C21            62.6858883252       13.1881702377       28.0884332321  MEMB      127             0.0000000000
     16870       133  POPC      O22            61.7079893019       13.8406501632       27.7649392111  MEMB      127             0.0000000000
     16871       133  POPC      C22            63.7725920936       13.7417388416       29.0252078318  MEMB      127             0.0000000000
     16872       133  POPC      H2R            63.2282872519       14.2033640665       29.8756392704  MEMB      127             0.0000000000
     16873       133  POPC      H2S            64.3082372582       14.5422090287       28.4795377264  MEMB      127             0.0000000000
     16874       133  POPC      C3             61.4414483583        9.9502580101       27.6742063163  MEMB      127             0.0000000000
     16875       133  POPC      HX             60.9636187243        9.3089376010       26.9002582899  MEMB      127             0.0000000000
     16876       133  POPC      HY             60.6344149733       10.1878793853       28.3939346569  MEMB      127             0.0000000000
     16877       133  POPC      O31            62.5311623731        9.2108881290       28.2886067528  MEMB      127             0.0000000000
     16878       133  POPC      C31            62.7139909977        9.5164976514       29.5813976334  MEMB      127             0.0000000000
     16879       133  POPC      O32            62.0373133709       10.2977330078       30.2250770870  MEMB      127             0.0000000000
     16880       133  POPC      C32            63.8383316512        8.6761529487       30.1961989052  MEMB      127             0.0000000000
     16881       133  POPC      H2X            64.7263651701        8.7317842721       29.5383506162  MEMB      127             0.0000000000
     16882       133  POPC      H2Y            63.4768627056        7.6263417240       30.2427232381  MEMB      127             0.0000000000
     16883       133  POPC      C23            64.7796093925       12.6967142671       29.5592171689  MEMB      127             0.0000000000
     16884       133  POPC      H3R            65.3956999710       12.3268792705       28.7055719812  MEMB      127             0.0000000000
     16885       133  POPC      H3S            64.2249150226       11.8295588938       29.9774355472  MEMB      127             0.0000000000
     16886       133  POPC      C24            65.7076507733       13.2289546243       30.6683634034  MEMB      127             0.0000000000
     16887       133  POPC      H4R            66.1996973137       14.1652679921       30.3270726885  MEMB      127             0.0000000000
     16888       133  POPC      H4S            66.5066686823       12.4668550352       30.8185253786  MEMB      127             0.0000000000
     16889       133  POPC      C25            65.0092713726       13.4558426531       32.0232835885  MEMB      127             0.0000000000
     16890       133  POPC      H5R            64.3981648476       12.5589768025       32.2635030884  MEMB      127             0.0000000000
     16891       133  POPC      H5S            64.3182211679       14.3246658500       31.9506447600  MEMB      127             0.0000000000
     16892       133  POPC      C26            66.0145481653       13.6972826610       33.1605969587  MEMB      127             0.0000000000
     16893       133  POPC      H6R            66.5687865871       14.6377504888       32.9297699077  MEMB      127             0.0000000000
     16894       133  POPC      H6S            66.7612468466       12.8724402397       33.1806597557  MEMB      127             0.0000000000
     16895       133  POPC      C27            65.4010184570       13.8467224391       34.5664966464  MEMB      127             0.0000000000
     16896       133  POPC      H7R            64.5343070791       14.5418844345       34.5531592858  MEMB      127             0.0000000000
     16897       133  POPC      H7S            66.1969131051       14.3295206519       35.1822526413  MEMB      127             0.0000000000
     16898       133  POPC      C28            65.0591683725       12.5230055895       35.2902909420  MEMB      127             0.0000000000
     16899       133  POPC      H8R            65.2969756729       12.6794944989       36.3636817698  MEMB      127             0.0000000000
     16900       133  POPC      H8S            65.7681301275       11.7422016704       34.9463094326  MEMB      127             0.0000000000
     16901       133  POPC      C29            63.6314460701       12.0525406699       35.1376270985  MEMB      127             0.0000000000
     16902       133  POPC      H91            63.2562648081       12.0415669783       34.1016144568  MEMB      127             0.0000000000
     16903       133  POPC      C210           62.8010928440       11.6653726094       36.1292465829  MEMB      127             0.0000000000
     16904       133  POPC      H101           61.7773063559       11.3589439871       35.8599458003  MEMB      127             0.0000000000
     16905       133  POPC      C211           63.1169996983       11.6161336871       37.6091247760  MEMB      127             0.0000000000
     16906       133  POPC      H11R           64.2111942656       11.6636689592       37.7948258281  MEMB      127             0.0000000000
     16907       133  POPC      H11S           62.7843381519       10.6448392196       38.0399875948  MEMB      127             0.0000000000
     16908       133  POPC      C212           62.4459126482       12.7559449868       38.4072666724  MEMB      127             0.0000000000
     16909       133  POPC      H12R           61.4056538190       12.4440156961       38.6303029864  MEMB      127             0.0000000000
     16910       133  POPC      H12S           62.3788766083       13.6800289020       37.7993412254  MEMB      127             0.0000000000
     16911       133  POPC      C213           63.1684320393       13.0892512604       39.7262516907  MEMB      127             0.0000000000
     16912       133  POPC      H13R           64.1880112367       13.4851353329       39.5372179076  MEMB      127             0.0000000000
     16913       133  POPC      H13S           63.3049569777       12.1252581697       40.2587347652  MEMB      127             0.0000000000
     16914       133  POPC      C214           62.4041410728       14.0570480848       40.6586248648  MEMB      127             0.0000000000
     16915       133  POPC      H14R           61.3285188855       14.0254464875       40.4106574220  MEMB      127             0.0000000000
     16916       133  POPC      H14S           62.7238314293       15.1054313859       40.4967313002  MEMB      127             0.0000000000
     16917       133  POPC      C215           62.5926772823       13.6341499774       42.1254018759  MEMB      127             0.0000000000
     16918       133  POPC      H15R           63.6480539922       13.8287394453       42.4199909988  MEMB      127             0.0000000000
     16919       133  POPC      H15S           62.4504744809       12.5374159770       42.1436687995  MEMB      127             0.0000000000
     16920       133  POPC      C216           61.6418539528       14.2278817273       43.1862694811  MEMB      127             0.0000000000
     16921       133  POPC      H16R           60.7897278235       14.7577427608       42.7150644341  MEMB      127             0.0000000000
     16922       133  POPC      H16S           62.2575081682       14.9798611857       43.7131200241  MEMB      127             0.0000000000
     16923       133  POPC      C217           61.1276103144       13.2216326318       44.2508377448  MEMB      127             0.0000000000
     16924       133  POPC      H17R           61.6426458434       13.4209673466       45.2167383499  MEMB      127             0.0000000000
     16925       133  POPC      H17S           61.4454775928       12.2000903918       43.9564981220  MEMB      127             0.0000000000
     16926       133  POPC      C218           59.6090989675       13.1656744615       44.5004787912  MEMB      127             0.0000000000
     16927       133  POPC      H18R           59.3124124484       12.1326608529       44.7825916944  MEMB      127             0.0000000000
     16928       133  POPC      H18S           59.0320751284       13.4555965076       43.6007807128  MEMB      127             0.0000000000
     16929       133  POPC      H18T           59.2962939113       13.8203764818       45.3345386895  MEMB      127             0.0000000000
     16930       133  POPC      C33            64.1421369435        9.1979212911       31.6290566009  MEMB      127             0.0000000000
     16931       133  POPC      H3X            63.2046322207        9.0962290673       32.2094964045  MEMB      127             0.0000000000
     16932       133  POPC      H3Y            64.3669537070       10.2854362144       31.5859349255  MEMB      127             0.0000000000
     16933       133  POPC      C34            65.2774489902        8.4976245038       32.4103964131  MEMB      127             0.0000000000
     16934       133  POPC      H4X            66.1967613764        8.4850364469       31.7872636215  MEMB      127             0.0000000000
     16935       133  POPC      H4Y            64.9792795283        7.4446874954       32.6082251941  MEMB      127             0.0000000000
     16936       133  POPC      C35            65.6065281976        9.1900683507       33.7593598287  MEMB      127             0.0000000000
     16937       133  POPC      H5X            64.6591130031        9.3760398389       34.3095261655  MEMB      127             0.0000000000
     16938       133  POPC      H5Y            66.0473332483       10.1874198079       33.5421363009  MEMB      127             0.0000000000
     16939       133  POPC      C36            66.5797654354        8.4020207403       34.6733141945  MEMB      127             0.0000000000
     16940       133  POPC      H6X            67.6099668689        8.5522002538       34.2804925783  MEMB      127             0.0000000000
     16941       133  POPC      H6Y            66.3566207866        7.3149370281       34.5958513758  MEMB      127             0.0000000000
     16942       133  POPC      C37            66.5631529551        8.7882054311       36.1756920514  MEMB      127             0.0000000000
     16943       133  POPC      H7X            65.6436504214        8.4078867617       36.6699756239  MEMB      127             0.0000000000
     16944       133  POPC      H7Y            66.5523565255        9.8949122547       36.2767691002  MEMB      127             0.0000000000
     16945       133  POPC      C38            67.7755293953        8.2190204587       36.9394080390  MEMB      127             0.0000000000
     16946       133  POPC      H8X            68.6975998240        8.5264248016       36.3929710596  MEMB      127             0.0000000000
     16947       133  POPC      H8Y            67.7377419981        7.1068138856       36.9251121116  MEMB      127             0.0000000000
     16948       133  POPC      C39            67.9357312726        8.6985011106       38.3956902134  MEMB      127             0.0000000000
     16949       133  POPC      H9X            68.0626396170        9.8029079180       38.4200482924  MEMB      127             0.0000000000
     16950       133  POPC      H9Y            68.8774835285        8.2538161360       38.7873023055  MEMB      127             0.0000000000
     16951       133  POPC      C310           66.8316030738        8.2870249186       39.3783008346  MEMB      127             0.0000000000
     16952       133  POPC      H10X           66.6801898103        7.1836681505       39.3221023104  MEMB      127             0.0000000000
     16953       133  POPC      H10Y           65.8714209196        8.7789856004       39.1159817971  MEMB      127             0.0000000000
     16954       133  POPC      C311           67.2314754476        8.6387092304       40.8202047978  MEMB      127             0.0000000000
     16955       133  POPC      H11X           67.5368272982        9.7030393318       40.9119044179  MEMB      127             0.0000000000
     16956       133  POPC      H11Y           68.1083729144        8.0076125670       41.0773213023  MEMB      127             0.0000000000
     16957       133  POPC      C312           66.1474044250        8.3316057382       41.8472152239  MEMB      127             0.0000000000
     16958       133  POPC      H12X           65.3303059824        7.7927195749       41.3248460637  MEMB      127             0.0000000000
     16959       133  POPC      H12Y           65.7155803711        9.2694724374       42.2457414847  MEMB      127             0.0000000000
     16960       133  POPC      C313           66.6654293562        7.5028911383       43.0223485551  MEMB      127             0.0000000000
     16961       133  POPC      H13X           67.1706480777        8.1686231209       43.7423982535  MEMB      127             0.0000000000
     16962       133  POPC      H13Y           67.4282514035        6.7745232927       42.6646742774  MEMB      127             0.0000000000
     16963       133  POPC      C314           65.5512025428        6.7250390629       43.7166925846  MEMB      127             0.0000000000
     16964       133  POPC      H14X           65.8997228973        5.6699277065       43.7849290652  MEMB      127             0.0000000000
     16965       133  POPC      H14Y           64.6211874822        6.7530608438       43.1082512619  MEMB      127             0.0000000000
     16966       133  POPC      C315           65.2244842064        7.2009684808       45.1186027815  MEMB      127             0.0000000000
     16967       133  POPC      H15X           64.1424682330        7.0278519091       45.3290266123  MEMB      127             0.0000000000
     16968       133  POPC      H15Y           65.4269850005        8.2731347422       45.2123903572  MEMB      127             0.0000000000
     16969       133  POPC      C316           66.0496503292        6.4362828708       46.1200921959  MEMB      127             0.0000000000
     16970       133  POPC      H16X           67.1378658954        6.6125569394       45.9884339338  MEMB      127             0.0000000000
     16971       133  POPC      H16Y           65.8310541716        5.3837243835       45.8806659889  MEMB      127             0.0000000000
     16972       133  POPC      H16Z           65.7515787138        6.6367694340       47.1698675427  MEMB      127             0.0000000000
     16973       134  POPC      N              58.7571146155       62.2663113131       21.9479408223  MEMB      128             0.0000000000
     16974       134  POPC      C12            58.7043133117       62.6328592996       23.4347417627  MEMB      128             0.0000000000
     16975       134  POPC      H12A           57.8568115694       62.1088988153       23.8950406687  MEMB      128             0.0000000000
     16976       134  POPC      H12B           58.4903769347       63.6818104810       23.5609447721  MEMB      128             0.0000000000
     16977       134  POPC      C13            57.8770434516       61.0672291401       21.7304534806  MEMB      128             0.0000000000
     16978       134  POPC      H13A           57.9870378931       60.6765041099       20.7293590739  MEMB      128             0.0000000000
     16979       134  POPC      H13B           58.1180520845       60.2695041792       22.4381272330  MEMB      128             0.0000000000
     16980       134  POPC      H13C           56.8315724937       61.3023569370       21.8834021749  MEMB      128             0.0000000000
     16981       134  POPC      C14            58.3223931557       63.4184749928       21.0910550665  MEMB      128             0.0000000000
     16982       134  POPC      H14A           58.4323386040       63.1847323476       20.0334968113  MEMB      128             0.0000000000
     16983       134  POPC      H14B           57.2814530801       63.6679822391       21.2206454356  MEMB      128             0.0000000000
     16984       134  POPC      H14C           58.9403178445       64.2845124101       21.2901457538  MEMB      128             0.0000000000
     16985       134  POPC      C15            60.1594823858       61.9091092892       21.5468194776  MEMB      128             0.0000000000
     16986       134  POPC      H15A           60.2347066364       61.5200571013       20.5412293614  MEMB      128             0.0000000000
     16987       134  POPC      H15B           60.4979845606       61.1354015269       22.2381447185  MEMB      128             0.0000000000
     16988       134  POPC      H15C           60.7984854868       62.7697325674       21.6651350325  MEMB      128             0.0000000000
     16989       134  POPC      C11            59.9107168943       62.2688292218       24.3414888719  MEMB      128             0.0000000000
     16990       134  POPC      H11A           59.6583487369       62.4822479498       25.4074195077  MEMB      128             0.0000000000
     16991       134  POPC      H11B           60.7730286855       62.9233286603       24.1006659561  MEMB      128             0.0000000000
     16992       134  POPC      P              59.4128368616       59.7305744687       24.7113012867  MEMB      128             0.0000000000
     16993       134  POPC      O13            59.9966455256       59.2671502769       25.9779499618  MEMB      128             0.0000000000
     16994       134  POPC      O14            59.3234314795       58.8041842678       23.5578093128  MEMB      128             0.0000000000
     16995       134  POPC      O12            60.3041425511       60.9143518283       24.1826767511  MEMB      128             0.0000000000
     16996       134  POPC      O11            57.9887539055       60.3796349223       24.9631415142  MEMB      128             0.0000000000
     16997       134  POPC      C1             57.0394729996       59.5908957022       25.6901485613  MEMB      128             0.0000000000
     16998       134  POPC      HA             57.5071362501       59.1211412302       26.5948094293  MEMB      128             0.0000000000
     16999       134  POPC      HB             56.6163605468       58.7944763342       25.0366113943  MEMB      128             0.0000000000
     17000       134  POPC      C2             55.8789022218       60.4176912402       26.2807495371  MEMB      128             0.0000000000
     17001       134  POPC      HS             55.3317308646       60.9287691222       25.4553062455  MEMB      128             0.0000000000
     17002       134  POPC      O21            56.4460941003       61.3520304670       27.2227284523  MEMB      128             0.0000000000
     17003       134  POPC      C21            56.9654209253       62.4205994135       26.6687024148  MEMB      128             0.0000000000
     17004       134  POPC      O22            56.7024193290       62.8579290878       25.5564619000  MEMB      128             0.0000000000
     17005       134  POPC      C22            57.8800651453       63.1828923840       27.6405584547  MEMB      128             0.0000000000
     17006       134  POPC      H2R            57.3150891369       64.0954788981       27.9204157800  MEMB      128             0.0000000000
     17007       134  POPC      H2S            58.7679219130       63.4988654699       27.0582265237  MEMB      128             0.0000000000
     17008       134  POPC      C3             54.8570688510       59.4571356817       26.9655523257  MEMB      128             0.0000000000
     17009       134  POPC      HX             54.5450744168       58.7038918300       26.2056360448  MEMB      128             0.0000000000
     17010       134  POPC      HY             53.9241240282       59.9819173800       27.2476281246  MEMB      128             0.0000000000
     17011       134  POPC      O31            55.4473633486       58.7638369580       28.0834331589  MEMB      128             0.0000000000
     17012       134  POPC      C31            55.4396094466       59.4879291381       29.2013177574  MEMB      128             0.0000000000
     17013       134  POPC      O32            54.8482442474       60.5351601532       29.3740893044  MEMB      128             0.0000000000
     17014       134  POPC      C32            56.2665842474       58.8170184186       30.2882317338  MEMB      128             0.0000000000
     17015       134  POPC      H2X            57.3354444177       58.9336590461       30.0105095400  MEMB      128             0.0000000000
     17016       134  POPC      H2Y            56.0133375143       57.7407527760       30.3112122018  MEMB      128             0.0000000000
     17017       134  POPC      C23            58.3564981686       62.4775068857       28.9404193140  MEMB      128             0.0000000000
     17018       134  POPC      H3R            59.4680598561       62.4034794454       28.9381115384  MEMB      128             0.0000000000
     17019       134  POPC      H3S            57.9680447127       61.4393889383       29.0190409462  MEMB      128             0.0000000000
     17020       134  POPC      C24            57.9078183411       63.2725130213       30.1747506025  MEMB      128             0.0000000000
     17021       134  POPC      H4R            56.8284010689       63.4568500239       30.0319792503  MEMB      128             0.0000000000
     17022       134  POPC      H4S            58.3964978355       64.2682651123       30.1953232854  MEMB      128             0.0000000000
     17023       134  POPC      C25            58.0717092115       62.5387018113       31.5155055806  MEMB      128             0.0000000000
     17024       134  POPC      H5R            58.4627203313       61.5157352851       31.3225496550  MEMB      128             0.0000000000
     17025       134  POPC      H5S            57.0568138608       62.4488410393       31.9663521049  MEMB      128             0.0000000000
     17026       134  POPC      C26            58.9633501904       63.2602495883       32.5346424482  MEMB      128             0.0000000000
     17027       134  POPC      H6R            58.3279227513       63.8283484906       33.2502352121  MEMB      128             0.0000000000
     17028       134  POPC      H6S            59.5709385264       63.9922262172       31.9710407433  MEMB      128             0.0000000000
     17029       134  POPC      C27            59.9336633471       62.3433933829       33.2999153252  MEMB      128             0.0000000000
     17030       134  POPC      H7R            60.7156970860       62.0197512574       32.5750322053  MEMB      128             0.0000000000
     17031       134  POPC      H7S            59.4045304417       61.4305120501       33.6462826788  MEMB      128             0.0000000000
     17032       134  POPC      C28            60.5616830913       63.0556767819       34.5183611121  MEMB      128             0.0000000000
     17033       134  POPC      H8R            59.8043572406       63.0883370416       35.3340224307  MEMB      128             0.0000000000
     17034       134  POPC      H8S            60.7646644289       64.1124283559       34.2411411269  MEMB      128             0.0000000000
     17035       134  POPC      C29            61.8461803177       62.4290535595       34.9972384949  MEMB      128             0.0000000000
     17036       134  POPC      H91            62.2942542090       61.6781562216       34.3266236500  MEMB      128             0.0000000000
     17037       134  POPC      C210           62.4761988955       62.7381026817       36.1443751599  MEMB      128             0.0000000000
     17038       134  POPC      H101           63.4117345636       62.2166854192       36.3914332526  MEMB      128             0.0000000000
     17039       134  POPC      C211           62.0422331271       63.7535553317       37.1714310854  MEMB      128             0.0000000000
     17040       134  POPC      H11R           61.3114246178       64.4821711509       36.7552927303  MEMB      128             0.0000000000
     17041       134  POPC      H11S           62.9185133027       64.3359287397       37.5309778013  MEMB      128             0.0000000000
     17042       134  POPC      C212           61.4122448838       63.0340568334       38.3683607999  MEMB      128             0.0000000000
     17043       134  POPC      H12R           62.1737340226       62.3911022293       38.8662278883  MEMB      128             0.0000000000
     17044       134  POPC      H12S           60.5919253174       62.3878305874       38.0026177526  MEMB      128             0.0000000000
     17045       134  POPC      C213           60.7774002190       63.9538384493       39.4140095682  MEMB      128             0.0000000000
     17046       134  POPC      H13R           59.8373908920       64.3784767209       38.9954668349  MEMB      128             0.0000000000
     17047       134  POPC      H13S           61.4721278100       64.7915037611       39.6236368278  MEMB      128             0.0000000000
     17048       134  POPC      C214           60.4763121067       63.1831790822       40.7075468912  MEMB      128             0.0000000000
     17049       134  POPC      H14R           61.3861510801       63.1728823433       41.3406334080  MEMB      128             0.0000000000
     17050       134  POPC      H14S           60.2776403399       62.1231993953       40.4298538269  MEMB      128             0.0000000000
     17051       134  POPC      C215           59.2734445870       63.7006911806       41.5162915438  MEMB      128             0.0000000000
     17052       134  POPC      H15R           58.3637121149       63.6084034556       40.8869875416  MEMB      128             0.0000000000
     17053       134  POPC      H15S           59.3917285577       64.7750509961       41.7478317745  MEMB      128             0.0000000000
     17054       134  POPC      C216           59.0774663038       62.9055773634       42.8206628158  MEMB      128             0.0000000000
     17055       134  POPC      H16R           59.6799861119       63.3601743685       43.6321205830  MEMB      128             0.0000000000
     17056       134  POPC      H16S           59.4905667790       61.8890397059       42.6566808893  MEMB      128             0.0000000000
     17057       134  POPC      C217           57.6210943122       62.7432230366       43.2873729458  MEMB      128             0.0000000000
     17058       134  POPC      H17R           56.9511947151       62.5868365868       42.4155417602  MEMB      128             0.0000000000
     17059       134  POPC      H17S           57.2905744393       63.6953669417       43.7536573308  MEMB      128             0.0000000000
     17060       134  POPC      C218           57.4423654417       61.5762788682       44.2726715028  MEMB      128             0.0000000000
     17061       134  POPC      H18R           57.4191267671       60.5967902977       43.7498177771  MEMB      128             0.0000000000
     17062       134  POPC      H18S           56.4983728569       61.6867674847       44.8478075419  MEMB      128             0.0000000000
     17063       134  POPC      H18T           58.2918495367       61.5497737052       44.9877215005  MEMB      128             0.0000000000
     17064       134  POPC      C33            56.0552216292       59.4523083088       31.6722887124  MEMB      128             0.0000000000
     17065       134  POPC      H3X            54.9731562291       59.5031488013       31.9189948743  MEMB      128             0.0000000000
     17066       134  POPC      H3Y            56.4018863361       60.5034605832       31.6446153144  MEMB      128             0.0000000000
     17067       134  POPC      C34            56.7950405587       58.6971953340       32.7853991415  MEMB      128             0.0000000000
     17068       134  POPC      H4X            57.8942729386       58.8381187801       32.6851880175  MEMB      128             0.0000000000
     17069       134  POPC      H4Y            56.5888678454       57.6085455143       32.6924782068  MEMB      128             0.0000000000
     17070       134  POPC      C35            56.3248440073       59.1656992692       34.1617478559  MEMB      128             0.0000000000
     17071       134  POPC      H5X            56.6497155218       58.4464096862       34.9457663283  MEMB      128             0.0000000000
     17072       134  POPC      H5Y            55.2133069549       59.1721338798       34.1614437573  MEMB      128             0.0000000000
     17073       134  POPC      C36            56.8339088783       60.5695393238       34.5147491173  MEMB      128             0.0000000000
     17074       134  POPC      H6X            56.8721938170       61.2107043353       33.6139477687  MEMB      128             0.0000000000
     17075       134  POPC      H6Y            57.8753453653       60.4920817973       34.8894552819  MEMB      128             0.0000000000
     17076       134  POPC      C37            55.9605437330       61.2862877855       35.5478899300  MEMB      128             0.0000000000
     17077       134  POPC      H7X            55.5117889933       60.5323015146       36.2237383338  MEMB      128             0.0000000000
     17078       134  POPC      H7Y            55.1153592709       61.7909004607       35.0290164636  MEMB      128             0.0000000000
     17079       134  POPC      C38            56.7572158158       62.2887283859       36.3919987336  MEMB      128             0.0000000000
     17080       134  POPC      H8X            56.9053811797       63.2169498293       35.7961292676  MEMB      128             0.0000000000
     17081       134  POPC      H8Y            57.7647181486       61.8793306750       36.5892039229  MEMB      128             0.0000000000
     17082       134  POPC      C39            56.0877020011       62.6242246408       37.7340329037  MEMB      128             0.0000000000
     17083       134  POPC      H9X            55.0891712930       62.1379593528       37.7953376729  MEMB      128             0.0000000000
     17084       134  POPC      H9Y            55.9317117730       63.7261383693       37.7293113581  MEMB      128             0.0000000000
     17085       134  POPC      C310           56.8877802546       62.3129203007       39.0117714755  MEMB      128             0.0000000000
     17086       134  POPC      H10X           56.4783971674       62.9578580366       39.8244060436  MEMB      128             0.0000000000
     17087       134  POPC      H10Y           57.9510616462       62.5971694608       38.8531321878  MEMB      128             0.0000000000
     17088       134  POPC      C311           56.7947658210       60.8578129484       39.5000283589  MEMB      128             0.0000000000
     17089       134  POPC      H11X           57.1607911455       60.2088139398       38.6793656070  MEMB      128             0.0000000000
     17090       134  POPC      H11Y           55.7340208109       60.5912220614       39.7006733408  MEMB      128             0.0000000000
     17091       134  POPC      C312           57.6233617994       60.5784373302       40.7695497787  MEMB      128             0.0000000000
     17092       134  POPC      H12X           56.9622070020       60.6062615742       41.6573782476  MEMB      128             0.0000000000
     17093       134  POPC      H12Y           58.3694287395       61.3856907087       40.8440306284  MEMB      128             0.0000000000
     17094       134  POPC      C313           58.4145730254       59.2705464859       40.7467536240  MEMB      128             0.0000000000
     17095       134  POPC      H13X           58.9363113541       59.2307993933       39.7679311276  MEMB      128             0.0000000000
     17096       134  POPC      H13Y           57.7241423951       58.4161002495       40.8151321880  MEMB      128             0.0000000000
     17097       134  POPC      C314           59.4570434824       59.0197479397       41.8387825931  MEMB      128             0.0000000000
     17098       134  POPC      H14X           58.9671718126       58.6167707893       42.7533051651  MEMB      128             0.0000000000
     17099       134  POPC      H14Y           59.9840838361       59.9557491737       42.1135586065  MEMB      128             0.0000000000
     17100       134  POPC      C315           60.5014158770       58.0282044744       41.3101603301  MEMB      128             0.0000000000
     17101       134  POPC      H15X           61.1768637061       57.7219269202       42.1381418410  MEMB      128             0.0000000000
     17102       134  POPC      H15Y           61.1121776890       58.5918135478       40.5687634070  MEMB      128             0.0000000000
     17103       134  POPC      C316           59.9473247227       56.7809582469       40.6057164433  MEMB      128             0.0000000000
     17104       134  POPC      H16X           60.7716969778       56.1561800280       40.2252197583  MEMB      128             0.0000000000
     17105       134  POPC      H16Y           59.3164400886       57.0421053435       39.7315331227  MEMB      128             0.0000000000
     17106       134  POPC      H16Z           59.3501476421       56.1540285277       41.2937412858  MEMB      128             0.0000000000
     17107       135  POPC      N              64.8933765865       60.2670801235       22.6940224328  MEMB      129             0.0000000000
     17108       135  POPC      C12            64.6724225074       59.3713696161       23.9064733413  MEMB      129             0.0000000000
     17109       135  POPC      H12A           63.9137062305       58.6085659087       23.6883183517  MEMB      129             0.0000000000
     17110       135  POPC      H12B           64.2656665938       59.9317042060       24.7318778413  MEMB      129             0.0000000000
     17111       135  POPC      C13            65.9844224335       61.2556690937       22.9444951271  MEMB      129             0.0000000000
     17112       135  POPC      H13A           65.8794187314       61.7741096412       23.8812477443  MEMB      129             0.0000000000
     17113       135  POPC      H13B           66.9420557362       60.7296663786       22.9245028685  MEMB      129             0.0000000000
     17114       135  POPC      H13C           66.0592601665       61.9820840210       22.1435156733  MEMB      129             0.0000000000
     17115       135  POPC      C14            65.3229381675       59.3808700885       21.5581975256  MEMB      129             0.0000000000
     17116       135  POPC      H14A           66.1227914298       58.7228867044       21.9009710015  MEMB      129             0.0000000000
     17117       135  POPC      H14B           64.5192579753       58.7136364664       21.2585536715  MEMB      129             0.0000000000
     17118       135  POPC      H14C           65.6208465304       59.9476973752       20.6871486938  MEMB      129             0.0000000000
     17119       135  POPC      C15            63.6249506095       60.9556533625       22.3034191535  MEMB      129             0.0000000000
     17120       135  POPC      H15A           62.7547345028       60.3690341807       22.5824435657  MEMB      129             0.0000000000
     17121       135  POPC      H15B           63.6123726481       61.0991218704       21.2240386968  MEMB      129             0.0000000000
     17122       135  POPC      H15C           63.5479599174       61.9239337072       22.7705414341  MEMB      129             0.0000000000
     17123       135  POPC      C11            65.8802458686       58.5476976669       24.3961846104  MEMB      129             0.0000000000
     17124       135  POPC      H11A           65.7206576633       58.3325514731       25.4809473358  MEMB      129             0.0000000000
     17125       135  POPC      H11B           66.8298877171       59.1211366302       24.3186704352  MEMB      129             0.0000000000
     17126       135  POPC      P              66.8922957577       56.1980835868       24.2227325920  MEMB      129             0.0000000000
     17127       135  POPC      O13            68.0119223184       56.8866118697       24.8801444131  MEMB      129             0.0000000000
     17128       135  POPC      O14            67.2388968794       55.2373594116       23.1426484564  MEMB      129             0.0000000000
     17129       135  POPC      O12            65.9519633068       57.3359469603       23.6350640553  MEMB      129             0.0000000000
     17130       135  POPC      O11            65.9873695841       55.4895231120       25.2834821171  MEMB      129             0.0000000000
     17131       135  POPC      C1             64.8015248984       54.8261966068       24.8452493676  MEMB      129             0.0000000000
     17132       135  POPC      HA             65.0494096738       53.7802496416       24.5590321333  MEMB      129             0.0000000000
     17133       135  POPC      HB             64.3241325626       55.3138793873       23.9601150429  MEMB      129             0.0000000000
     17134       135  POPC      C2             63.7605700354       54.7713320709       25.9889684441  MEMB      129             0.0000000000
     17135       135  POPC      HS             62.7764088702       54.5505427705       25.5282344598  MEMB      129             0.0000000000
     17136       135  POPC      O21            63.6694984979       55.9998524766       26.7348791332  MEMB      129             0.0000000000
     17137       135  POPC      C21            63.3470008962       57.1049857710       26.0808791067  MEMB      129             0.0000000000
     17138       135  POPC      O22            63.0651233288       57.1770905448       24.8923365272  MEMB      129             0.0000000000
     17139       135  POPC      C22            63.3117827435       58.3166229782       27.0354414363  MEMB      129             0.0000000000
     17140       135  POPC      H2R            62.6505811483       59.0634167137       26.5411560871  MEMB      129             0.0000000000
     17141       135  POPC      H2S            64.3273744088       58.7485347899       27.1285588604  MEMB      129             0.0000000000
     17142       135  POPC      C3             64.1032004404       53.5951362356       26.9653217621  MEMB      129             0.0000000000
     17143       135  POPC      HX             63.9782548581       52.6435003294       26.4024477360  MEMB      129             0.0000000000
     17144       135  POPC      HY             63.3653106732       53.5694943420       27.8014321513  MEMB      129             0.0000000000
     17145       135  POPC      O31            65.4725743866       53.6644577022       27.4300900345  MEMB      129             0.0000000000
     17146       135  POPC      C31            65.6424101467       54.5666902576       28.3782136467  MEMB      129             0.0000000000
     17147       135  POPC      O32            64.7599614049       55.0015103361       29.0951099240  MEMB      129             0.0000000000
     17148       135  POPC      C32            67.1092293082       54.9373352088       28.5439492744  MEMB      129             0.0000000000
     17149       135  POPC      H2X            67.4689774204       55.3909262552       27.5960791948  MEMB      129             0.0000000000
     17150       135  POPC      H2Y            67.6634136411       53.9955756936       28.7239532570  MEMB      129             0.0000000000
     17151       135  POPC      C23            62.7253955243       58.0389529600       28.4470867585  MEMB      129             0.0000000000
     17152       135  POPC      H3R            63.5460452614       57.8293239292       29.1659951885  MEMB      129             0.0000000000
     17153       135  POPC      H3S            62.0972212027       57.1244693518       28.4182683119  MEMB      129             0.0000000000
     17154       135  POPC      C24            61.8232336296       59.1762293485       28.9618640073  MEMB      129             0.0000000000
     17155       135  POPC      H4R            61.1239942549       59.4494651250       28.1374899746  MEMB      129             0.0000000000
     17156       135  POPC      H4S            62.4303526692       60.0725022465       29.1983699143  MEMB      129             0.0000000000
     17157       135  POPC      C25            60.9557986691       58.7686041087       30.1687839978  MEMB      129             0.0000000000
     17158       135  POPC      H5R            60.4338481098       57.8247025164       29.8860379308  MEMB      129             0.0000000000
     17159       135  POPC      H5S            60.1725413181       59.5390681520       30.3479391341  MEMB      129             0.0000000000
     17160       135  POPC      C26            61.7615167131       58.5495021628       31.4621640090  MEMB      129             0.0000000000
     17161       135  POPC      H6R            62.0278684122       59.5265621213       31.9158108474  MEMB      129             0.0000000000
     17162       135  POPC      H6S            62.7237716229       58.0748084551       31.1719726851  MEMB      129             0.0000000000
     17163       135  POPC      C27            61.0258102390       57.6509364386       32.4745343931  MEMB      129             0.0000000000
     17164       135  POPC      H7R            60.1972835989       57.1326923911       31.9374541251  MEMB      129             0.0000000000
     17165       135  POPC      H7S            60.5505009391       58.2852009676       33.2537316900  MEMB      129             0.0000000000
     17166       135  POPC      C28            61.8977225617       56.5582128945       33.1368325649  MEMB      129             0.0000000000
     17167       135  POPC      H8R            61.2010234438       55.9341060282       33.7381053870  MEMB      129             0.0000000000
     17168       135  POPC      H8S            62.6229911927       57.0225563192       33.8352803235  MEMB      129             0.0000000000
     17169       135  POPC      C29            62.5783761812       55.6958211380       32.0995461273  MEMB      129             0.0000000000
     17170       135  POPC      H91            62.0084801200       55.6307783273       31.1579434549  MEMB      129             0.0000000000
     17171       135  POPC      C210           63.7541278274       55.0378582290       32.1364065481  MEMB      129             0.0000000000
     17172       135  POPC      H101           64.0203427979       54.4742259293       31.2309932716  MEMB      129             0.0000000000
     17173       135  POPC      C211           64.8072886134       54.9057812827       33.2074117073  MEMB      129             0.0000000000
     17174       135  POPC      H11R           65.6971337102       54.4176044797       32.7505649967  MEMB      129             0.0000000000
     17175       135  POPC      H11S           64.4104735676       54.1730896450       33.9317526570  MEMB      129             0.0000000000
     17176       135  POPC      C212           65.3673272322       56.1202606465       33.9878344159  MEMB      129             0.0000000000
     17177       135  POPC      H12R           64.7672058818       57.0190247316       33.7354865804  MEMB      129             0.0000000000
     17178       135  POPC      H12S           66.4148611133       56.3154759407       33.6698396641  MEMB      129             0.0000000000
     17179       135  POPC      C213           65.3347856937       55.9190189999       35.5138080635  MEMB      129             0.0000000000
     17180       135  POPC      H13R           64.9380049570       54.9104868973       35.7178046066  MEMB      129             0.0000000000
     17181       135  POPC      H13S           64.5722378637       56.6036761076       35.9216764177  MEMB      129             0.0000000000
     17182       135  POPC      C214           66.6666146805       56.0405312653       36.2977257236  MEMB      129             0.0000000000
     17183       135  POPC      H14R           66.9760697369       57.1015063385       36.3467109821  MEMB      129             0.0000000000
     17184       135  POPC      H14S           67.4677802558       55.4876453046       35.7599717661  MEMB      129             0.0000000000
     17185       135  POPC      C215           66.5242838005       55.4198271004       37.7088770105  MEMB      129             0.0000000000
     17186       135  POPC      H15R           66.9833309425       54.4082712413       37.7154027822  MEMB      129             0.0000000000
     17187       135  POPC      H15S           65.4335082428       55.2809191642       37.8618554094  MEMB      129             0.0000000000
     17188       135  POPC      C216           66.9989680394       56.1824905237       38.9635609094  MEMB      129             0.0000000000
     17189       135  POPC      H16R           68.0334560854       55.9290632026       39.2387686359  MEMB      129             0.0000000000
     17190       135  POPC      H16S           66.3788117001       55.7806809074       39.8032243100  MEMB      129             0.0000000000
     17191       135  POPC      C217           66.7975529111       57.7006251531       38.9450417881  MEMB      129             0.0000000000
     17192       135  POPC      H17R           66.3334385766       57.9650800213       39.9121138057  MEMB      129             0.0000000000
     17193       135  POPC      H17S           66.0789499693       57.9380422044       38.1426697161  MEMB      129             0.0000000000
     17194       135  POPC      C218           68.0172750217       58.6056173800       38.7762606763  MEMB      129             0.0000000000
     17195       135  POPC      H18R           68.7913033607       58.3569757698       39.5259968997  MEMB      129             0.0000000000
     17196       135  POPC      H18S           67.7225550383       59.6685742267       38.9201194891  MEMB      129             0.0000000000
     17197       135  POPC      H18T           68.4428585783       58.4964880585       37.7572121134  MEMB      129             0.0000000000
     17198       135  POPC      C33            67.2523543216       55.9239778632       29.7300421398  MEMB      129             0.0000000000
     17199       135  POPC      H3X            68.3165936979       55.9841191486       30.0292051335  MEMB      129             0.0000000000
     17200       135  POPC      H3Y            66.6925555500       55.5380420001       30.6128559659  MEMB      129             0.0000000000
     17201       135  POPC      C34            66.7672587456       57.3461434592       29.3938203217  MEMB      129             0.0000000000
     17202       135  POPC      H4X            65.8231664848       57.2805975383       28.8055175144  MEMB      129             0.0000000000
     17203       135  POPC      H4Y            67.5234004811       57.8403609806       28.7443499517  MEMB      129             0.0000000000
     17204       135  POPC      C35            66.4762183440       58.2217869870       30.6282225565  MEMB      129             0.0000000000
     17205       135  POPC      H5X            65.6388223430       57.7767453167       31.2133506402  MEMB      129             0.0000000000
     17206       135  POPC      H5Y            66.1318135609       59.2187752798       30.2686636055  MEMB      129             0.0000000000
     17207       135  POPC      C36            67.6925377445       58.4169177564       31.5439143107  MEMB      129             0.0000000000
     17208       135  POPC      H6X            68.5711778933       58.6191423495       30.8888887330  MEMB      129             0.0000000000
     17209       135  POPC      H6Y            67.8923169707       57.4834273440       32.1095452754  MEMB      129             0.0000000000
     17210       135  POPC      C37            67.5447917308       59.5950490979       32.5202181080  MEMB      129             0.0000000000
     17211       135  POPC      H7X            66.9797090308       60.4001593794       32.0088087595  MEMB      129             0.0000000000
     17212       135  POPC      H7Y            68.5577952760       59.9930019677       32.7560297708  MEMB      129             0.0000000000
     17213       135  POPC      C38            66.8431949276       59.2353748542       33.8359967278  MEMB      129             0.0000000000
     17214       135  POPC      H8X            67.5038804764       58.5507683836       34.4159261453  MEMB      129             0.0000000000
     17215       135  POPC      H8Y            65.8984106130       58.7048222849       33.6054866844  MEMB      129             0.0000000000
     17216       135  POPC      C39            66.4912763685       60.4588377354       34.6914532319  MEMB      129             0.0000000000
     17217       135  POPC      H9X            65.6629769403       61.0251151183       34.2143799097  MEMB      129             0.0000000000
     17218       135  POPC      H9Y            67.3836598863       61.1268920257       34.7144959899  MEMB      129             0.0000000000
     17219       135  POPC      C310           66.1313203426       60.1081789523       36.1456604125  MEMB      129             0.0000000000
     17220       135  POPC      H10X           66.3188326572       60.9979473266       36.7743183963  MEMB      129             0.0000000000
     17221       135  POPC      H10Y           66.8273602427       59.3237625114       36.5007615763  MEMB      129             0.0000000000
     17222       135  POPC      C311           64.6809214999       59.6593283156       36.3886171007  MEMB      129             0.0000000000
     17223       135  POPC      H11X           64.5922003964       58.6062774197       36.0638732443  MEMB      129             0.0000000000
     17224       135  POPC      H11Y           63.9870329767       60.2405999572       35.7464259092  MEMB      129             0.0000000000
     17225       135  POPC      C312           64.2294952563       59.7942537069       37.8610520744  MEMB      129             0.0000000000
     17226       135  POPC      H12X           63.9087222014       60.8472166505       38.0275043142  MEMB      129             0.0000000000
     17227       135  POPC      H12Y           65.0698854664       59.6347644851       38.5608977522  MEMB      129             0.0000000000
     17228       135  POPC      C313           63.0655361466       58.8525023496       38.2339302355  MEMB      129             0.0000000000
     17229       135  POPC      H13X           62.3326412725       58.9901170565       37.4088865774  MEMB      129             0.0000000000
     17230       135  POPC      H13Y           62.5867416452       59.2005335393       39.1716161400  MEMB      129             0.0000000000
     17231       135  POPC      C314           63.3785126096       57.3366823323       38.3371523518  MEMB      129             0.0000000000
     17232       135  POPC      H14X           64.3196512479       57.1344126748       37.8097867896  MEMB      129             0.0000000000
     17233       135  POPC      H14Y           62.6009695770       56.7772949004       37.7838373953  MEMB      129             0.0000000000
     17234       135  POPC      C315           63.4759232145       56.7221083879       39.7501924691  MEMB      129             0.0000000000
     17235       135  POPC      H15X           62.7472547330       57.2169764290       40.4154972217  MEMB      129             0.0000000000
     17236       135  POPC      H15Y           64.4802767372       56.9378843103       40.1599082025  MEMB      129             0.0000000000
     17237       135  POPC      C316           63.3003285067       55.1994422291       39.8586597809  MEMB      129             0.0000000000
     17238       135  POPC      H16X           63.6597568316       54.8499177458       40.8530156647  MEMB      129             0.0000000000
     17239       135  POPC      H16Y           63.8984601952       54.6868262338       39.0852356644  MEMB      129             0.0000000000
     17240       135  POPC      H16Z           62.2462406146       54.8796710777       39.7386533073  MEMB      129             0.0000000000
     17241       136  POPC      N              66.3756476076        0.3177664314       21.4943745746  MEMB      130             0.0000000000
     17242       136  POPC      C12            65.0592743096        1.0229939707       21.8200368678  MEMB      130             0.0000000000
     17243       136  POPC      H12A           64.4323703689        0.3858991326       22.4383499991  MEMB      130             0.0000000000
     17244       136  POPC      H12B           64.5232520968        1.1826527726       20.8906571082  MEMB      130             0.0000000000
     17245       136  POPC      C13            67.0313497226        0.0356276487       22.8001636666  MEMB      130             0.0000000000
     17246       136  POPC      H13A           68.0776816213       -0.2187403943       22.7667642647  MEMB      130             0.0000000000
     17247       136  POPC      H13B           66.8848082849        0.9056285753       23.4624960456  MEMB      130             0.0000000000
     17248       136  POPC      H13C           66.4926236933       -0.7516705340       23.3081666644  MEMB      130             0.0000000000
     17249       136  POPC      C14            66.0472155619       -0.9501685613       20.7567114453  MEMB      130             0.0000000000
     17250       136  POPC      H14A           66.8855032922       -1.6211268836       20.6031817575  MEMB      130             0.0000000000
     17251       136  POPC      H14B           65.2553366737       -1.4814274561       21.2698025725  MEMB      130             0.0000000000
     17252       136  POPC      H14C           65.6357092858       -0.7389937982       19.7640586425  MEMB      130             0.0000000000
     17253       136  POPC      C15            67.0681191778        1.2964648950       20.5918988333  MEMB      130             0.0000000000
     17254       136  POPC      H15A           68.0929340157        1.0892671498       20.3232874490  MEMB      130             0.0000000000
     17255       136  POPC      H15B           67.0199120512        2.3004594321       21.0050188763  MEMB      130             0.0000000000
     17256       136  POPC      H15C           66.5131151284        1.3425945382       19.6463930088  MEMB      130             0.0000000000
     17257       136  POPC      C11            65.1739403573        2.3602957293       22.5910485625  MEMB      130             0.0000000000
     17258       136  POPC      H11A           64.2364760752        2.9477515648       22.4963737375  MEMB      130             0.0000000000
     17259       136  POPC      H11B           65.9498845075        3.0203971317       22.1607589923  MEMB      130             0.0000000000
     17260       136  POPC      P              64.3545194453        1.5619033958       24.9016028764  MEMB      130             0.0000000000
     17261       136  POPC      O13            63.1540291133        2.4200306310       24.7128167398  MEMB      130             0.0000000000
     17262       136  POPC      O14            64.9203000646        1.3719416581       26.2550756332  MEMB      130             0.0000000000
     17263       136  POPC      O12            65.4987351287        2.1297222242       23.9590329820  MEMB      130             0.0000000000
     17264       136  POPC      O11            64.0318028485        0.1417886765       24.2264758980  MEMB      130             0.0000000000
     17265       136  POPC      C1             64.6226425394       -1.0841730305       24.6786600847  MEMB      130             0.0000000000
     17266       136  POPC      HA             65.4699750170       -0.8957149958       25.3841764816  MEMB      130             0.0000000000
     17267       136  POPC      HB             65.0174860609       -1.6445086456       23.8077216259  MEMB      130             0.0000000000
     17268       136  POPC      C2             63.6081886964       -2.0088717537       25.4114736174  MEMB      130             0.0000000000
     17269       136  POPC      HS             62.8610618998       -2.3686465384       24.6707235163  MEMB      130             0.0000000000
     17270       136  POPC      O21            62.9712883035       -1.1687108229       26.3663762685  MEMB      130             0.0000000000
     17271       136  POPC      C21            62.0812858206       -1.6940596771       27.1546104112  MEMB      130             0.0000000000
     17272       136  POPC      O22            61.5729220076       -2.7985017539       27.0362767539  MEMB      130             0.0000000000
     17273       136  POPC      C22            61.7569960018       -0.6877192846       28.2226599038  MEMB      130             0.0000000000
     17274       136  POPC      H2R            60.7053851770       -0.8312320918       28.5243205257  MEMB      130             0.0000000000
     17275       136  POPC      H2S            61.8918144687        0.3363995071       27.8010357667  MEMB      130             0.0000000000
     17276       136  POPC      C3             64.3163680189       -3.2340559449       26.0735239557  MEMB      130             0.0000000000
     17277       136  POPC      HX             64.7329507073       -3.8917211464       25.2849918315  MEMB      130             0.0000000000
     17278       136  POPC      HY             63.6096730460       -3.8519520875       26.6719083849  MEMB      130             0.0000000000
     17279       136  POPC      O31            65.3736926599       -2.7092452058       26.8755611798  MEMB      130             0.0000000000
     17280       136  POPC      C31            65.8883221425       -3.4485281703       27.8277099857  MEMB      130             0.0000000000
     17281       136  POPC      O32            65.6875942476       -4.6334430615       28.0030319801  MEMB      130             0.0000000000
     17282       136  POPC      C32            66.8899219335       -2.5745090502       28.5717379195  MEMB      130             0.0000000000
     17283       136  POPC      H2X            66.3179361289       -1.8209473637       29.1446881686  MEMB      130             0.0000000000
     17284       136  POPC      H2Y            67.4438724044       -2.0198698388       27.7914571170  MEMB      130             0.0000000000
     17285       136  POPC      C23            62.6914345115       -0.8664363180       29.4250825144  MEMB      130             0.0000000000
     17286       136  POPC      H3R            62.7784113718        0.1440395431       29.8905151746  MEMB      130             0.0000000000
     17287       136  POPC      H3S            63.7265198599       -1.1500544654       29.1285791043  MEMB      130             0.0000000000
     17288       136  POPC      C24            62.1230021389       -1.8428018901       30.4624024946  MEMB      130             0.0000000000
     17289       136  POPC      H4R            62.6185928505       -2.8337467859       30.3534143808  MEMB      130             0.0000000000
     17290       136  POPC      H4S            61.0349334064       -2.0052503099       30.3006408023  MEMB      130             0.0000000000
     17291       136  POPC      C25            62.3249003014       -1.2791048316       31.8696909250  MEMB      130             0.0000000000
     17292       136  POPC      H5R            63.3716896398       -0.9106223409       31.9091140057  MEMB      130             0.0000000000
     17293       136  POPC      H5S            62.2227867336       -2.0839716556       32.6237286202  MEMB      130             0.0000000000
     17294       136  POPC      C26            61.3877931463       -0.0952023649       32.1903707440  MEMB      130             0.0000000000
     17295       136  POPC      H6R            60.4337864872       -0.4360156783       32.6363133409  MEMB      130             0.0000000000
     17296       136  POPC      H6S            61.1564453598        0.4513852543       31.2531892465  MEMB      130             0.0000000000
     17297       136  POPC      C27            62.0134287136        0.9337764716       33.1188169425  MEMB      130             0.0000000000
     17298       136  POPC      H7R            62.4990202169        1.7417157428       32.5294445028  MEMB      130             0.0000000000
     17299       136  POPC      H7S            62.8342105371        0.4121592388       33.6767228073  MEMB      130             0.0000000000
     17300       136  POPC      C28            61.0808970511        1.5183129239       34.2174259076  MEMB      130             0.0000000000
     17301       136  POPC      H8R            61.8380116946        2.1751887917       34.6500853436  MEMB      130             0.0000000000
     17302       136  POPC      H8S            60.8790284374        0.6729886108       34.9164506320  MEMB      130             0.0000000000
     17303       136  POPC      C29            59.8405644689        2.3888859741       34.1863735579  MEMB      130             0.0000000000
     17304       136  POPC      H91            59.0577309316        2.0590907661       33.4928345629  MEMB      130             0.0000000000
     17305       136  POPC      C210           59.6497753793        3.5521680038       34.8736720685  MEMB      130             0.0000000000
     17306       136  POPC      H101           58.6912740668        4.0778717651       34.7809352930  MEMB      130             0.0000000000
     17307       136  POPC      C211           60.6047641434        4.2604020444       35.8084819631  MEMB      130             0.0000000000
     17308       136  POPC      H11R           60.9594000471        5.1383102812       35.2357992379  MEMB      130             0.0000000000
     17309       136  POPC      H11S           61.4937519548        3.6329278386       35.9854648125  MEMB      130             0.0000000000
     17310       136  POPC      C212           60.2537427184        4.8247640606       37.2210529838  MEMB      130             0.0000000000
     17311       136  POPC      H12R           59.5758740032        4.1248515617       37.7499449823  MEMB      130             0.0000000000
     17312       136  POPC      H12S           59.7269632417        5.7920920621       37.1029700409  MEMB      130             0.0000000000
     17313       136  POPC      C213           61.5682262118        4.9981950871       38.0328895794  MEMB      130             0.0000000000
     17314       136  POPC      H13R           62.3601167399        5.2368200676       37.3151797657  MEMB      130             0.0000000000
     17315       136  POPC      H13S           61.8133125166        4.0033380412       38.4271164154  MEMB      130             0.0000000000
     17316       136  POPC      C214           61.6838523561        5.9693109969       39.2236695378  MEMB      130             0.0000000000
     17317       136  POPC      H14R           61.1334364774        5.4770713444       40.0517091383  MEMB      130             0.0000000000
     17318       136  POPC      H14S           61.2065337811        6.9435888739       38.9836233293  MEMB      130             0.0000000000
     17319       136  POPC      C215           63.1210855250        6.2285619335       39.7742607746  MEMB      130             0.0000000000
     17320       136  POPC      H15R           63.0175553489        6.6694409523       40.7908428816  MEMB      130             0.0000000000
     17321       136  POPC      H15S           63.6405150575        6.9843406660       39.1464032177  MEMB      130             0.0000000000
     17322       136  POPC      C216           64.0188135959        4.9762257338       39.8647444379  MEMB      130             0.0000000000
     17323       136  POPC      H16R           64.6757193126        4.9210356855       38.9789347155  MEMB      130             0.0000000000
     17324       136  POPC      H16S           63.3551908300        4.0882804905       39.9129776865  MEMB      130             0.0000000000
     17325       136  POPC      C217           64.9545580237        4.8266613634       41.0594570518  MEMB      130             0.0000000000
     17326       136  POPC      H17R           65.3394191987        5.8181065990       41.3336332003  MEMB      130             0.0000000000
     17327       136  POPC      H17S           65.8399156418        4.2074440560       40.7912342112  MEMB      130             0.0000000000
     17328       136  POPC      C218           64.2081214286        4.1564400436       42.1980962686  MEMB      130             0.0000000000
     17329       136  POPC      H18R           63.9162494984        3.1223898188       41.9428817232  MEMB      130             0.0000000000
     17330       136  POPC      H18S           63.2846158446        4.7315199314       42.3519399813  MEMB      130             0.0000000000
     17331       136  POPC      H18T           64.7734011621        4.1391489300       43.1451271608  MEMB      130             0.0000000000
     17332       136  POPC      C33            67.8821360686       -3.3271129763       29.4864667864  MEMB      130             0.0000000000
     17333       136  POPC      H3X            68.8874708223       -2.8554217731       29.3827664353  MEMB      130             0.0000000000
     17334       136  POPC      H3Y            68.0113934682       -4.3859613063       29.1659327172  MEMB      130             0.0000000000
     17335       136  POPC      C34            67.4846817630       -3.2536434703       30.9694161147  MEMB      130             0.0000000000
     17336       136  POPC      H4X            68.2085095597       -3.8734779455       31.5464406627  MEMB      130             0.0000000000
     17337       136  POPC      H4Y            66.4770277671       -3.7056053601       31.0905737730  MEMB      130             0.0000000000
     17338       136  POPC      C35            67.4972132673       -1.8258420460       31.5475889207  MEMB      130             0.0000000000
     17339       136  POPC      H5X            67.8259058528       -1.1382057972       30.7373605629  MEMB      130             0.0000000000
     17340       136  POPC      H5Y            68.2417329758       -1.7627354108       32.3715964694  MEMB      130             0.0000000000
     17341       136  POPC      C36            66.1430247131       -1.2952848687       32.0433104002  MEMB      130             0.0000000000
     17342       136  POPC      H6X            65.3996816966       -1.4316733187       31.2245667316  MEMB      130             0.0000000000
     17343       136  POPC      H6Y            66.2358133084       -0.2009920719       32.2308919967  MEMB      130             0.0000000000
     17344       136  POPC      C37            65.6049572369       -1.9513879470       33.3207545958  MEMB      130             0.0000000000
     17345       136  POPC      H7X            65.4848846799       -3.0451155481       33.1617601948  MEMB      130             0.0000000000
     17346       136  POPC      H7Y            64.5895483782       -1.5399225258       33.5206615503  MEMB      130             0.0000000000
     17347       136  POPC      C38            66.4228900852       -1.7108881051       34.5994656427  MEMB      130             0.0000000000
     17348       136  POPC      H8X            66.6134213509       -0.6248946134       34.7422629634  MEMB      130             0.0000000000
     17349       136  POPC      H8Y            67.4034814457       -2.2301685481       34.5278438340  MEMB      130             0.0000000000
     17350       136  POPC      C39            65.6204636089       -2.2529455926       35.7853801713  MEMB      130             0.0000000000
     17351       136  POPC      H9X            65.2893179509       -3.2735279205       35.4877799340  MEMB      130             0.0000000000
     17352       136  POPC      H9Y            64.7027153377       -1.6404005687       35.9203369883  MEMB      130             0.0000000000
     17353       136  POPC      C310           66.3633761957       -2.3964048118       37.1166531855  MEMB      130             0.0000000000
     17354       136  POPC      H10X           67.4504122364       -2.5564783524       36.9584162009  MEMB      130             0.0000000000
     17355       136  POPC      H10Y           65.9503801131       -3.3078125865       37.6040540447  MEMB      130             0.0000000000
     17356       136  POPC      C311           66.0945667522       -1.2643618906       38.1063429148  MEMB      130             0.0000000000
     17357       136  POPC      H11X           64.9966596874       -1.0824791596       38.1244049111  MEMB      130             0.0000000000
     17358       136  POPC      H11Y           66.5716459627       -0.3274967265       37.7525408602  MEMB      130             0.0000000000
     17359       136  POPC      C312           66.5602792847       -1.6145389902       39.5336794645  MEMB      130             0.0000000000
     17360       136  POPC      H12X           66.4711104766       -0.6962823928       40.1539818448  MEMB      130             0.0000000000
     17361       136  POPC      H12Y           67.6304054732       -1.9102290460       39.5307434273  MEMB      130             0.0000000000
     17362       136  POPC      C313           65.7040654803       -2.7217651011       40.1743142706  MEMB      130             0.0000000000
     17363       136  POPC      H13X           65.9189835644       -3.7092289300       39.7139358944  MEMB      130             0.0000000000
     17364       136  POPC      H13Y           64.6402845523       -2.4776316004       39.9412116045  MEMB      130             0.0000000000
     17365       136  POPC      C314           65.8429241479       -2.8368620036       41.7016776629  MEMB      130             0.0000000000
     17366       136  POPC      H14X           66.1361070514       -1.8452225438       42.1128856772  MEMB      130             0.0000000000
     17367       136  POPC      H14Y           66.6589002939       -3.5367692412       41.9757025315  MEMB      130             0.0000000000
     17368       136  POPC      C315           64.5172150563       -3.2574018955       42.3565840112  MEMB      130             0.0000000000
     17369       136  POPC      H15X           64.2988183164       -4.3104260101       42.2149421451  MEMB      130             0.0000000000
     17370       136  POPC      H15Y           63.6718824082       -2.7650779684       41.8474956932  MEMB      130             0.0000000000
     17371       136  POPC      C316           64.4233010245       -3.0020221822       43.8449095290  MEMB      130             0.0000000000
     17372       136  POPC      H16X           63.5403760322       -3.5193636716       44.2799472660  MEMB      130             0.0000000000
     17373       136  POPC      H16Y           64.2843131213       -1.9180739246       44.0142889737  MEMB      130             0.0000000000
     17374       136  POPC      H16Z           65.3411489554       -3.3465900030       44.3646627103  MEMB      130             0.0000000000
     17375       137  TIP3      OH2            11.9145488438        9.6354786988       69.5174891728  TIP3      1               0.0000000000
     17376       137  TIP3      H1             12.0149527603       10.5950977104       69.6725180182  TIP3      1               0.0000000000
     17377       137  TIP3      H2             11.4285909266        9.6384224736       68.6736830738  TIP3      1               0.0000000000
     17378       138  TIP3      OH2            11.2150317238        8.4817185293       72.7449786243  TIP3      2               0.0000000000
     17379       138  TIP3      H1             11.2952868609        8.2071449580       73.6888715832  TIP3      2               0.0000000000
     17380       138  TIP3      H2             10.2569317206        8.4409731018       72.5870721265  TIP3      2               0.0000000000
     17381       139  TIP3      OH2             3.5071106187        9.0834524738       74.1543852943  TIP3      3               0.0000000000
     17382       139  TIP3      H1              3.3586241068        8.2357665091       74.6058915587  TIP3      3               0.0000000000
     17383       139  TIP3      H2              4.0715721477        9.4988815704       74.8399628341  TIP3      3               0.0000000000
     17384       140  TIP3      OH2            14.6041702441       12.1724995040       71.4237920862  TIP3      4               0.0000000000
     17385       140  TIP3      H1             14.5824984002       11.4286937691       72.0305463648  TIP3      4               0.0000000000
     17386       140  TIP3      H2             14.5659225837       12.9353781561       72.0338249876  TIP3      4               0.0000000000
     17387       141  TIP3      OH2             3.5361277967       13.1732818736       72.9495768719  TIP3      5               0.0000000000
     17388       141  TIP3      H1              3.6210856970       12.2483491083       72.6201925711  TIP3      5               0.0000000000
     17389       141  TIP3      H2              4.1606212485       13.1348734830       73.6890102964  TIP3      5               0.0000000000
     17390       142  TIP3      OH2             0.5925092007        7.1263676021       68.7429749063  TIP3      6               0.0000000000
     17391       142  TIP3      H1              0.6012444758        7.9897032236       68.3020552105  TIP3      6               0.0000000000
     17392       142  TIP3      H2             -0.3019681300        7.0656070780       69.0943867638  TIP3      6               0.0000000000
     17393       143  TIP3      OH2             1.8226327757        9.0215508653       70.7082602441  TIP3      7               0.0000000000
     17394       143  TIP3      H1              1.8250066903        8.0567224834       70.9019228069  TIP3      7               0.0000000000
     17395       143  TIP3      H2              2.0652532015        9.0502834530       69.7734427947  TIP3      7               0.0000000000
     17396       144  TIP3      OH2            11.7088808850       17.1917194822       71.1969576583  TIP3      8               0.0000000000
     17397       144  TIP3      H1             12.5266462808       16.7208517578       70.8875754379  TIP3      8               0.0000000000
     17398       144  TIP3      H2             11.3222249629       16.5002663419       71.7471658320  TIP3      8               0.0000000000
     17399       145  TIP3      OH2             9.0692722003       11.6079784110       73.5343969108  TIP3      9               0.0000000000
     17400       145  TIP3      H1              9.5030011137       11.2469690987       72.7453182454  TIP3      9               0.0000000000
     17401       145  TIP3      H2              9.8596242793       11.9899346442       73.9780806609  TIP3      9               0.0000000000
     17402       146  TIP3      OH2            17.8377626910        2.9517136706       73.5495880026  TIP3      10              0.0000000000
     17403       146  TIP3      H1             18.1819197562        3.6332498697       74.1599590094  TIP3      10              0.0000000000
     17404       146  TIP3      H2             18.5918892392        2.8380015956       72.9442156868  TIP3      10              0.0000000000
     17405       147  TIP3      OH2            12.9132383685        5.7063160133       73.7911149921  TIP3      11              0.0000000000
     17406       147  TIP3      H1             13.3563276188        4.8897115560       74.0775398755  TIP3      11              0.0000000000
     17407       147  TIP3      H2             12.9738062465        5.6328444610       72.8247851278  TIP3      11              0.0000000000
     17408       148  TIP3      OH2             5.2961877900        4.0344029324       70.6637728197  TIP3      12              0.0000000000
     17409       148  TIP3      H1              5.1611419964        4.7258885770       69.9812073351  TIP3      12              0.0000000000
     17410       148  TIP3      H2              5.2501466315        3.2229653128       70.1188661911  TIP3      12              0.0000000000
     17411       149  TIP3      OH2            13.4324266180        3.4655385596       69.2699127917  TIP3      13              0.0000000000
     17412       149  TIP3      H1             13.8928185649        3.3456281734       70.1268849046  TIP3      13              0.0000000000
     17413       149  TIP3      H2             13.2274155218        4.4117158189       69.2863242256  TIP3      13              0.0000000000
     17414       150  TIP3      OH2             2.2441611109        6.3707728341       71.5368171979  TIP3      14              0.0000000000
     17415       150  TIP3      H1              2.9540209285        5.9359151727       72.0453499305  TIP3      14              0.0000000000
     17416       150  TIP3      H2              2.4478961948        6.0205994333       70.6494768585  TIP3      14              0.0000000000
     17417       151  TIP3      OH2             6.8392672129        7.9214296737       70.7782742382  TIP3      15              0.0000000000
     17418       151  TIP3      H1              7.6947886624        7.4958135051       71.0073897425  TIP3      15              0.0000000000
     17419       151  TIP3      H2              6.4508682238        7.2481219122       70.1768828981  TIP3      15              0.0000000000
     17420       152  TIP3      OH2            18.2738715130        4.8700771078       75.8991602480  TIP3      16              0.0000000000
     17421       152  TIP3      H1             17.5783067321        5.5562480239       75.8009194991  TIP3      16              0.0000000000
     17422       152  TIP3      H2             18.2626199947        4.6760739714       76.8440540516  TIP3      16              0.0000000000
     17423       153  TIP3      OH2             4.7169770730        2.8968125545       74.8674752873  TIP3      17              0.0000000000
     17424       153  TIP3      H1              4.1721515710        3.4730000757       74.2996840334  TIP3      17              0.0000000000
     17425       153  TIP3      H2              4.2344939377        2.9790037046       75.7127260057  TIP3      17              0.0000000000
     17426       154  TIP3      OH2            12.1961334258       12.2743774162       68.3495033595  TIP3      18              0.0000000000
     17427       154  TIP3      H1             12.0532363648       12.2149021501       67.3789883308  TIP3      18              0.0000000000
     17428       154  TIP3      H2             11.7615637390       13.1126986906       68.5845444063  TIP3      18              0.0000000000
     17429       155  TIP3      OH2             6.6845279470       10.6763082335       74.6032862017  TIP3      19              0.0000000000
     17430       155  TIP3      H1              6.1098742268       11.3913557298       74.9492563903  TIP3      19              0.0000000000
     17431       155  TIP3      H2              7.4895634275       11.1748576419       74.3301412314  TIP3      19              0.0000000000
     17432       156  TIP3      OH2            15.1858234027        4.1546221223       71.6148472937  TIP3      20              0.0000000000
     17433       156  TIP3      H1             15.7730606274        3.3822783696       71.5598639840  TIP3      20              0.0000000000
     17434       156  TIP3      H2             15.4849207033        4.5601283593       72.4486696667  TIP3      20              0.0000000000
     17435       157  TIP3      OH2             4.1453486080        4.9355669744       72.8874279755  TIP3      21              0.0000000000
     17436       157  TIP3      H1              4.7128754850        5.6149978319       73.3307562582  TIP3      21              0.0000000000
     17437       157  TIP3      H2              4.7136911698        4.6303198577       72.1304146127  TIP3      21              0.0000000000
     17438       158  TIP3      OH2             5.3002177646       12.9075327422       75.4411743780  TIP3      22              0.0000000000
     17439       158  TIP3      H1              5.2439637051       13.8753301804       75.5270484295  TIP3      22              0.0000000000
     17440       158  TIP3      H2              4.6530701194       12.6341062726       76.1370728114  TIP3      22              0.0000000000
     17441       159  TIP3      OH2             1.4292050820       12.6316767742       66.4559952944  TIP3      23              0.0000000000
     17442       159  TIP3      H1              0.6051208055       12.1190042050       66.3476128556  TIP3      23              0.0000000000
     17443       159  TIP3      H2              1.2689701730       13.1468256163       67.2638374257  TIP3      23              0.0000000000
     17444       160  TIP3      OH2            14.9264581625       13.8518867137       73.5523512603  TIP3      24              0.0000000000
     17445       160  TIP3      H1             13.9724015926       14.0034670748       73.7479342928  TIP3      24              0.0000000000
     17446       160  TIP3      H2             15.1049739084       14.7047423061       73.0992608808  TIP3      24              0.0000000000
     17447       161  TIP3      OH2            15.3630778573        2.8905167770       74.9709625539  TIP3      25              0.0000000000
     17448       161  TIP3      H1             14.5383889359        2.8921641024       74.4310265306  TIP3      25              0.0000000000
     17449       161  TIP3      H2             16.0592539206        2.6783848323       74.3209745424  TIP3      25              0.0000000000
     17450       162  TIP3      OH2             8.5941429924        0.9831928329       72.3474285822  TIP3      26              0.0000000000
     17451       162  TIP3      H1              8.3699573047        0.1254567508       71.9313684883  TIP3      26              0.0000000000
     17452       162  TIP3      H2              7.7123849491        1.3637194798       72.5072457019  TIP3      26              0.0000000000
     17453       163  TIP3      OH2            13.7533668794       15.7610278771       70.0686101577  TIP3      27              0.0000000000
     17454       163  TIP3      H1             13.7070348831       15.0268107633       69.4389187586  TIP3      27              0.0000000000
     17455       163  TIP3      H2             14.2909041981       16.4123962449       69.5653002074  TIP3      27              0.0000000000
     17456       164  TIP3      OH2            14.8356578148       13.4563769342       68.3683399549  TIP3      28              0.0000000000
     17457       164  TIP3      H1             14.5642472711       12.7018361564       67.8134633071  TIP3      28              0.0000000000
     17458       164  TIP3      H2             14.4747176630       13.1733479611       69.2300312185  TIP3      28              0.0000000000
     17459       165  TIP3      OH2            16.1090388644       12.2270814506       77.2297430765  TIP3      29              0.0000000000
     17460       165  TIP3      H1             16.3091994412       11.4950374668       76.6106092353  TIP3      29              0.0000000000
     17461       165  TIP3      H2             16.2850986123       12.9987210881       76.6535666641  TIP3      29              0.0000000000
     17462       166  TIP3      OH2            11.0007332440        9.1235953839       66.8522789876  TIP3      30              0.0000000000
     17463       166  TIP3      H1             10.2570037818        9.6426822567       66.4704522394  TIP3      30              0.0000000000
     17464       166  TIP3      H2             11.6571905004        9.1519957453       66.1307832306  TIP3      30              0.0000000000
     17465       167  TIP3      OH2            17.9594946373        8.7577761447       75.0476146865  TIP3      31              0.0000000000
     17466       167  TIP3      H1             17.5374406821        9.6216756478       75.2198462858  TIP3      31              0.0000000000
     17467       167  TIP3      H2             18.8573987054        9.0100706994       74.7834881770  TIP3      31              0.0000000000
     17468       168  TIP3      OH2            14.5336029591        9.1584181783       67.8627272199  TIP3      32              0.0000000000
     17469       168  TIP3      H1             13.8602448957        9.5224628756       68.4646834160  TIP3      32              0.0000000000
     17470       168  TIP3      H2             15.0340038567        8.5725936524       68.4591585935  TIP3      32              0.0000000000
     17471       169  TIP3      OH2            14.0404402503        7.6783276770       76.8679846575  TIP3      33              0.0000000000
     17472       169  TIP3      H1             13.9926687755        8.5457624620       77.2884902980  TIP3      33              0.0000000000
     17473       169  TIP3      H2             13.2983418518        7.7747821641       76.2336240324  TIP3      33              0.0000000000
     17474       170  TIP3      OH2             5.8058071994        9.9278470569       69.5480320579  TIP3      34              0.0000000000
     17475       170  TIP3      H1              5.1197999247        9.4175381220       69.0784229406  TIP3      34              0.0000000000
     17476       170  TIP3      H2              6.3492430648        9.1892222483       69.9225880870  TIP3      34              0.0000000000
     17477       171  TIP3      OH2             7.4470128064       13.0342447535       71.9392440518  TIP3      35              0.0000000000
     17478       171  TIP3      H1              8.0001284607       12.8603917808       71.1582274419  TIP3      35              0.0000000000
     17479       171  TIP3      H2              7.9094162079       12.4976202968       72.6291718644  TIP3      35              0.0000000000
     17480       172  TIP3      OH2             6.0910968071        8.5050599894       73.2325150281  TIP3      36              0.0000000000
     17481       172  TIP3      H1              6.3278019290        8.5760074953       72.2833308895  TIP3      36              0.0000000000
     17482       172  TIP3      H2              6.3586771738        9.3784671015       73.5942684332  TIP3      36              0.0000000000
     17483       173  TIP3      OH2            12.3802396735       14.4282056172       73.8892688157  TIP3      37              0.0000000000
     17484       173  TIP3      H1             12.0879904636       15.1845007751       74.4318383159  TIP3      37              0.0000000000
     17485       173  TIP3      H2             12.1185320713       13.6734270293       74.4435085494  TIP3      37              0.0000000000
     17486       174  TIP3      OH2             6.8747139227       12.9863101318       77.9331293824  TIP3      38              0.0000000000
     17487       174  TIP3      H1              6.2016688606       13.4391690266       78.5013192549  TIP3      38              0.0000000000
     17488       174  TIP3      H2              6.4397569335       12.9575793488       77.0589470886  TIP3      38              0.0000000000
     17489       175  TIP3      OH2            13.2707845525        8.2789325319       65.6820821498  TIP3      39              0.0000000000
     17490       175  TIP3      H1             13.6721608468        8.4598862022       66.5635211312  TIP3      39              0.0000000000
     17491       175  TIP3      H2             13.7688827906        8.8989722536       65.1317122764  TIP3      39              0.0000000000
     17492       176  TIP3      OH2             4.2502759202        9.5161476605       76.7949147591  TIP3      40              0.0000000000
     17493       176  TIP3      H1              4.3907256081       10.2566467591       77.3972899933  TIP3      40              0.0000000000
     17494       176  TIP3      H2              3.3006086914        9.3349025004       76.9879996401  TIP3      40              0.0000000000
     17495       177  TIP3      OH2            11.0887433032       15.0999135237       69.1104959586  TIP3      41              0.0000000000
     17496       177  TIP3      H1             11.2972531654       15.8658156306       69.6660145538  TIP3      41              0.0000000000
     17497       177  TIP3      H2             10.4411954606       15.5054248820       68.5132104094  TIP3      41              0.0000000000
     17498       178  TIP3      OH2             5.2014737849       14.8578031032       79.0292684621  TIP3      42              0.0000000000
     17499       178  TIP3      H1              4.9665792336       15.0201121994       78.0936050802  TIP3      42              0.0000000000
     17500       178  TIP3      H2              4.3067421961       14.7553168917       79.4214909208  TIP3      42              0.0000000000
     17501       179  TIP3      OH2            16.7349942999       -0.1090134353       65.7503100377  TIP3      43              0.0000000000
     17502       179  TIP3      H1             15.8180147069        0.1868801541       65.6820112061  TIP3      43              0.0000000000
     17503       179  TIP3      H2             17.0933668010        0.5087530212       66.4107162232  TIP3      43              0.0000000000
     17504       180  TIP3      OH2             3.8216959731        9.0867731714       67.7188285775  TIP3      44              0.0000000000
     17505       180  TIP3      H1              3.9097190144        9.8263041004       67.0746109668  TIP3      44              0.0000000000
     17506       180  TIP3      H2              4.1337443365        8.3388171943       67.2009101586  TIP3      44              0.0000000000
     17507       181  TIP3      OH2            17.7461316523       14.1307505370       63.5670928407  TIP3      45              0.0000000000
     17508       181  TIP3      H1             17.7317470727       14.9430313162       63.0454134182  TIP3      45              0.0000000000
     17509       181  TIP3      H2             18.6773148120       13.8497130097       63.5818089339  TIP3      45              0.0000000000
     17510       182  TIP3      OH2             1.1752392010       11.4682031064       76.5059817015  TIP3      46              0.0000000000
     17511       182  TIP3      H1              0.6568678660       11.5251778944       75.6771613229  TIP3      46              0.0000000000
     17512       182  TIP3      H2              1.3112890776       10.5025509349       76.5651651302  TIP3      46              0.0000000000
     17513       183  TIP3      OH2             0.6110615371       14.4708499966       72.9017354831  TIP3      47              0.0000000000
     17514       183  TIP3      H1              1.5324736143       14.3012821322       73.1541863389  TIP3      47              0.0000000000
     17515       183  TIP3      H2              0.2449736886       14.7060636326       73.7730422528  TIP3      47              0.0000000000
     17516       184  TIP3      OH2            18.8170589345       14.6598592209       78.8018493864  TIP3      48              0.0000000000
     17517       184  TIP3      H1             18.6527461644       13.6991006542       78.8258748527  TIP3      48              0.0000000000
     17518       184  TIP3      H2             17.9444379712       14.9791682931       79.1348550175  TIP3      48              0.0000000000
     17519       185  TIP3      OH2             9.5889410153       14.2299110252       77.7598528823  TIP3      49              0.0000000000
     17520       185  TIP3      H1              9.8200678571       14.9626248335       78.3655209529  TIP3      49              0.0000000000
     17521       185  TIP3      H2              8.6619271565       14.0518711011       77.9728076581  TIP3      49              0.0000000000
     17522       186  TIP3      OH2            10.2217654044       17.7639511767       68.1778333713  TIP3      50              0.0000000000
     17523       186  TIP3      H1             10.2312016414       17.3529103025       67.2993982008  TIP3      50              0.0000000000
     17524       186  TIP3      H2              9.9943357152       18.6854895735       67.9656139923  TIP3      50              0.0000000000
     17525       187  TIP3      OH2             4.3393040193       16.8022502595       69.2542746951  TIP3      51              0.0000000000
     17526       187  TIP3      H1              4.4552602860       16.2507135818       70.0669016591  TIP3      51              0.0000000000
     17527       187  TIP3      H2              3.7325604533       16.2377958547       68.7522528551  TIP3      51              0.0000000000
     17528       188  TIP3      OH2            12.8833362486       17.5805813501       64.3250404010  TIP3      52              0.0000000000
     17529       188  TIP3      H1             12.3499607368       16.9257016452       63.8334163191  TIP3      52              0.0000000000
     17530       188  TIP3      H2             12.6438291893       17.3779519914       65.2447406757  TIP3      52              0.0000000000
     17531       189  TIP3      OH2            12.6202249889       16.8385082288       66.9579281313  TIP3      53              0.0000000000
     17532       189  TIP3      H1             12.1324808771       17.3415456619       67.6291909729  TIP3      53              0.0000000000
     17533       189  TIP3      H2             13.0506538117       16.1580378678       67.4940991872  TIP3      53              0.0000000000
     17534       190  TIP3      OH2            15.9653358319        6.0582736775       78.8330399744  TIP3      54              0.0000000000
     17535       190  TIP3      H1             15.4267232889        6.5899286551       78.2167506388  TIP3      54              0.0000000000
     17536       190  TIP3      H2             15.9729361967        5.1789983288       78.3939131176  TIP3      54              0.0000000000
     17537       191  TIP3      OH2             3.4708941008       12.5035108980       77.3447400884  TIP3      55              0.0000000000
     17538       191  TIP3      H1              3.5958467170       12.1192001853       78.2373461610  TIP3      55              0.0000000000
     17539       191  TIP3      H2              2.5547798330       12.1752792237       77.1384873389  TIP3      55              0.0000000000
     17540       192  TIP3      OH2             5.8725421031        1.6700956231       72.7512739309  TIP3      56              0.0000000000
     17541       192  TIP3      H1              5.1053093519        1.5688200318       72.1437764016  TIP3      56              0.0000000000
     17542       192  TIP3      H2              5.4848838466        2.2984349514       73.3861677925  TIP3      56              0.0000000000
     17543       193  TIP3      OH2            10.6958358735        1.1324897757       77.0280923580  TIP3      57              0.0000000000
     17544       193  TIP3      H1             11.2353204083        0.4711474683       77.4704044543  TIP3      57              0.0000000000
     17545       193  TIP3      H2              9.9187242460        1.2153564595       77.6319116490  TIP3      57              0.0000000000
     17546       194  TIP3      OH2            13.1497796167        4.9733875999       77.3915526663  TIP3      58              0.0000000000
     17547       194  TIP3      H1             12.6251716968        4.8498898799       78.2278205255  TIP3      58              0.0000000000
     17548       194  TIP3      H2             13.3298750208        5.9304695326       77.3675907345  TIP3      58              0.0000000000
     17549       195  TIP3      OH2             5.8998065624        6.1854002506       74.3314474980  TIP3      59              0.0000000000
     17550       195  TIP3      H1              5.5039720313        6.4436887238       75.1906981221  TIP3      59              0.0000000000
     17551       195  TIP3      H2              5.9256795466        7.0797622927       73.9007617832  TIP3      59              0.0000000000
     17552       196  TIP3      OH2             5.3440594336        6.3190764283       68.9897512036  TIP3      60              0.0000000000
     17553       196  TIP3      H1              4.3693513984        6.3628332576       68.9512973724  TIP3      60              0.0000000000
     17554       196  TIP3      H2              5.5380787052        5.9474911547       68.0977881373  TIP3      60              0.0000000000
     17555       197  TIP3      OH2            11.0208168149        6.5595940206       67.8290079591  TIP3      61              0.0000000000
     17556       197  TIP3      H1             11.0239486690        7.5223572940       67.6119958306  TIP3      61              0.0000000000
     17557       197  TIP3      H2             11.8083392157        6.2337469172       67.3443357091  TIP3      61              0.0000000000
     17558       198  TIP3      OH2            10.1427767785        7.2395048766       79.4875193539  TIP3      62              0.0000000000
     17559       198  TIP3      H1              9.7205026893        6.3689792695       79.6588052275  TIP3      62              0.0000000000
     17560       198  TIP3      H2             10.9989050548        7.1660202283       79.9578530677  TIP3      62              0.0000000000
     17561       199  TIP3      OH2            12.7046601401        6.8997496088       70.9715014003  TIP3      63              0.0000000000
     17562       199  TIP3      H1             12.1396169521        7.6876875711       71.1610669058  TIP3      63              0.0000000000
     17563       199  TIP3      H2             12.1941224987        6.5039532130       70.2541958134  TIP3      63              0.0000000000
     17564       200  TIP3      OH2             2.8643961697        6.2000565424       75.6077653188  TIP3      64              0.0000000000
     17565       200  TIP3      H1              3.1759938690        6.3929383177       76.5009752265  TIP3      64              0.0000000000
     17566       200  TIP3      H2              2.7328301274        5.2345622253       75.6709196972  TIP3      64              0.0000000000
     17567       201  TIP3      OH2             1.3813047429        3.3897261058       70.3384271392  TIP3      65              0.0000000000
     17568       201  TIP3      H1              1.4627359999        3.6232505481       71.2929460122  TIP3      65              0.0000000000
     17569       201  TIP3      H2              1.2902450491        2.4274782844       70.4440130751  TIP3      65              0.0000000000
     17570       202  TIP3      OH2            11.6903933878        7.6338421610       75.1860821501  TIP3      66              0.0000000000
     17571       202  TIP3      H1             12.1201583800        6.8966000295       74.6874161772  TIP3      66              0.0000000000
     17572       202  TIP3      H2             11.0599237225        7.1590441943       75.7927598871  TIP3      66              0.0000000000
     17573       203  TIP3      OH2             8.3780794890        3.8121217788       70.2800453798  TIP3      67              0.0000000000
     17574       203  TIP3      H1              7.4112315261        3.7512088440       70.1790880752  TIP3      67              0.0000000000
     17575       203  TIP3      H2              8.4520038335        3.6117625693       71.2254656004  TIP3      67              0.0000000000
     17576       204  TIP3      OH2             2.8110039917        5.3579264144       69.1350256261  TIP3      68              0.0000000000
     17577       204  TIP3      H1              1.9239107127        5.7255370139       68.9086785780  TIP3      68              0.0000000000
     17578       204  TIP3      H2              2.5893230802        4.4307720520       69.3719034887  TIP3      68              0.0000000000
     17579       205  TIP3      OH2             6.1766443815        5.5501323250       66.5582619337  TIP3      69              0.0000000000
     17580       205  TIP3      H1              7.0669728263        5.3349410042       66.9388719484  TIP3      69              0.0000000000
     17581       205  TIP3      H2              6.4271083242        6.2517257829       65.9338183377  TIP3      69              0.0000000000
     17582       206  TIP3      OH2            12.9554190343        2.9162830585       73.9355118359  TIP3      70              0.0000000000
     17583       206  TIP3      H1             12.1946332475        3.3884444668       74.3216325405  TIP3      70              0.0000000000
     17584       206  TIP3      H2             12.6492934591        2.8149237303       73.0148483510  TIP3      70              0.0000000000
     17585       207  TIP3      OH2             6.4312484708        6.5779963129       63.9731827809  TIP3      71              0.0000000000
     17586       207  TIP3      H1              5.5713869827        6.1973387568       64.1952430118  TIP3      71              0.0000000000
     17587       207  TIP3      H2              6.2440395122        7.4145801968       63.5213808116  TIP3      71              0.0000000000
     17588       208  TIP3      OH2            15.7367916686       18.4125015814       80.1286694430  TIP3      72              0.0000000000
     17589       208  TIP3      H1             15.9726281920       18.5544574045       79.1951803318  TIP3      72              0.0000000000
     17590       208  TIP3      H2             16.5289945666       18.7544287431       80.5797104378  TIP3      72              0.0000000000
     17591       209  TIP3      OH2             3.7038552721       10.7301705064       79.5174528658  TIP3      73              0.0000000000
     17592       209  TIP3      H1              4.2850396530       11.0265964911       80.2611937977  TIP3      73              0.0000000000
     17593       209  TIP3      H2              2.8412067074       11.1166145410       79.7859859986  TIP3      73              0.0000000000
     17594       210  TIP3      OH2             9.1603693891        6.8875065863       71.7286012627  TIP3      74              0.0000000000
     17595       210  TIP3      H1             10.0144758302        6.4665925004       71.5826082796  TIP3      74              0.0000000000
     17596       210  TIP3      H2              8.7578136995        6.3081891289       72.3877979251  TIP3      74              0.0000000000
     17597       211  TIP3      OH2             5.6794633552        2.5919139668       68.4032417097  TIP3      75              0.0000000000
     17598       211  TIP3      H1              4.8310403042        2.1195145778       68.4640233379  TIP3      75              0.0000000000
     17599       211  TIP3      H2              6.2826349558        1.8916064388       68.7446607249  TIP3      75              0.0000000000
     17600       212  TIP3      OH2             8.0812722212        4.8315647868       74.1795395296  TIP3      76              0.0000000000
     17601       212  TIP3      H1              7.2303214932        5.3430817497       74.1629936046  TIP3      76              0.0000000000
     17602       212  TIP3      H2              8.6444647811        5.4099497108       74.7197274354  TIP3      76              0.0000000000
     17603       213  TIP3      OH2             9.0699652594       10.7488828856       65.9679313522  TIP3      77              0.0000000000
     17604       213  TIP3      H1              8.3717323918       10.9977421293       65.3390527674  TIP3      77              0.0000000000
     17605       213  TIP3      H2              8.7339836546       11.1651213337       66.7875468209  TIP3      77              0.0000000000
     17606       214  TIP3      OH2            16.2876719877       10.7707577756       75.0800395862  TIP3      78              0.0000000000
     17607       214  TIP3      H1             16.7314008983       11.4490641556       74.5122645779  TIP3      78              0.0000000000
     17608       214  TIP3      H2             15.3729459329       10.7529380733       74.7466058253  TIP3      78              0.0000000000
     17609       215  TIP3      OH2             9.9660697774       11.5905566470       77.2072841133  TIP3      79              0.0000000000
     17610       215  TIP3      H1              9.9670525131       11.1285068882       78.0540226514  TIP3      79              0.0000000000
     17611       215  TIP3      H2              9.8328660731       12.5158841105       77.4875411753  TIP3      79              0.0000000000
     17612       216  TIP3      OH2            12.9881973274        5.6708738666       66.2460360514  TIP3      80              0.0000000000
     17613       216  TIP3      H1             13.8965828737        5.6637416563       66.6186043967  TIP3      80              0.0000000000
     17614       216  TIP3      H2             13.0406570291        6.4847792515       65.7001254059  TIP3      80              0.0000000000
     17615       217  TIP3      OH2             4.1018852386       10.7491833621       71.9647729713  TIP3      81              0.0000000000
     17616       217  TIP3      H1              3.9265972687       10.2504406816       71.1509123673  TIP3      81              0.0000000000
     17617       217  TIP3      H2              3.9611466458       10.0348804155       72.6319242510  TIP3      81              0.0000000000
     17618       218  TIP3      OH2            11.3851239282       12.2797493272       65.8066428126  TIP3      82              0.0000000000
     17619       218  TIP3      H1             11.0855347871       13.1681402438       65.5540794789  TIP3      82              0.0000000000
     17620       218  TIP3      H2             10.5446885182       11.7847026149       65.8069371618  TIP3      82              0.0000000000
     17621       219  TIP3      OH2             1.6004239620        8.8785735876       77.2299520901  TIP3      83              0.0000000000
     17622       219  TIP3      H1              1.4999029595        8.6902904400       78.1885979402  TIP3      83              0.0000000000
     17623       219  TIP3      H2              0.7089563758        8.6213912297       76.9199414888  TIP3      83              0.0000000000
     17624       220  TIP3      OH2             7.6983288852        8.6425717092       78.8444705095  TIP3      84              0.0000000000
     17625       220  TIP3      H1              7.6617006192        7.6994741233       78.6311864315  TIP3      84              0.0000000000
     17626       220  TIP3      H2              8.6636086701        8.7786096810       78.8737222863  TIP3      84              0.0000000000
     17627       221  TIP3      OH2            12.8874560030       13.8103262395       77.5963859481  TIP3      85              0.0000000000
     17628       221  TIP3      H1             12.0948477323       14.0723448608       77.1065211613  TIP3      85              0.0000000000
     17629       221  TIP3      H2             12.6975158705       14.2762509236       78.4368181300  TIP3      85              0.0000000000
     17630       222  TIP3      OH2            17.9782272751        6.1494587115       66.4050099870  TIP3      86              0.0000000000
     17631       222  TIP3      H1             18.0382873441        5.4327063580       65.7419598644  TIP3      86              0.0000000000
     17632       222  TIP3      H2             17.4871432573        6.8072218264       65.8970589999  TIP3      86              0.0000000000
     17633       223  TIP3      OH2            18.5111798876       11.8933701929       78.5485387937  TIP3      87              0.0000000000
     17634       223  TIP3      H1             17.6111979062       12.0104070491       78.1670058153  TIP3      87              0.0000000000
     17635       223  TIP3      H2             19.0387302662       11.7621456280       77.7251692820  TIP3      87              0.0000000000
     17636       224  TIP3      OH2            16.4733134037       14.4932268892       66.2205282303  TIP3      88              0.0000000000
     17637       224  TIP3      H1             16.0319322255       13.9706275238       66.9211169340  TIP3      88              0.0000000000
     17638       224  TIP3      H2             16.2867744919       13.9993205966       65.4106180159  TIP3      88              0.0000000000
     17639       225  TIP3      OH2            14.1203238412        9.6786826139       73.3190985189  TIP3      89              0.0000000000
     17640       225  TIP3      H1             13.1571673548        9.5292178349       73.2656668955  TIP3      89              0.0000000000
     17641       225  TIP3      H2             14.3922111395        9.1142649871       72.5721743740  TIP3      89              0.0000000000
     17642       226  TIP3      OH2             6.5002728950       14.3332769615       68.8374186140  TIP3      90              0.0000000000
     17643       226  TIP3      H1              7.1433321101       15.0562102507       68.7741456208  TIP3      90              0.0000000000
     17644       226  TIP3      H2              5.8895135077       14.6003774212       68.1325051193  TIP3      90              0.0000000000
     17645       227  TIP3      OH2             7.8304959674       11.7769214541       69.0142472575  TIP3      91              0.0000000000
     17646       227  TIP3      H1              7.2914100100       12.4591339888       68.5810748507  TIP3      91              0.0000000000
     17647       227  TIP3      H2              7.2241150044       11.0252884982       69.1595756239  TIP3      91              0.0000000000
     17648       228  TIP3      OH2             8.0857847638       16.0218174175       75.8352963187  TIP3      92              0.0000000000
     17649       228  TIP3      H1              8.7538287685       16.6093011123       75.4368192276  TIP3      92              0.0000000000
     17650       228  TIP3      H2              8.6493112711       15.5521126338       76.4733386134  TIP3      92              0.0000000000
     17651       229  TIP3      OH2             6.8059974790       17.3153602241       68.3621783735  TIP3      93              0.0000000000
     17652       229  TIP3      H1              5.9135685342       17.3724641265       68.7657325509  TIP3      93              0.0000000000
     17653       229  TIP3      H2              7.1197957847       18.2398302620       68.3874243304  TIP3      93              0.0000000000
     17654       230  TIP3      OH2            11.3783468104       11.8608512257       74.8795685011  TIP3      94              0.0000000000
     17655       230  TIP3      H1             10.9779492810       11.5978763662       75.7489823311  TIP3      94              0.0000000000
     17656       230  TIP3      H2             11.8876321447       11.0743086892       74.6375399319  TIP3      94              0.0000000000
     17657       231  TIP3      OH2            14.6944844772       16.4733641138       77.4017883097  TIP3      95              0.0000000000
     17658       231  TIP3      H1             13.8671386667       16.0386466458       77.1289999605  TIP3      95              0.0000000000
     17659       231  TIP3      H2             14.8782091514       17.0645236952       76.6297180779  TIP3      95              0.0000000000
     17660       232  TIP3      OH2             2.8132476723        3.6940178151       76.8627313400  TIP3      96              0.0000000000
     17661       232  TIP3      H1              2.4706979480        4.1503384463       77.6786094645  TIP3      96              0.0000000000
     17662       232  TIP3      H2              2.2991283724        2.8771692876       76.9252775857  TIP3      96              0.0000000000
     17663       233  TIP3      OH2            15.0384056182       11.3074376861       66.2594815672  TIP3      97              0.0000000000
     17664       233  TIP3      H1             14.8680708243       10.4860919942       66.7702321442  TIP3      97              0.0000000000
     17665       233  TIP3      H2             16.0129357031       11.2838171704       66.1753706616  TIP3      97              0.0000000000
     17666       234  TIP3      OH2             2.3852994517       14.8929872190       75.1272683256  TIP3      98              0.0000000000
     17667       234  TIP3      H1              2.7823114250       14.1276765841       75.5789851358  TIP3      98              0.0000000000
     17668       234  TIP3      H2              2.6973121323       15.6266043162       75.6831455911  TIP3      98              0.0000000000
     17669       235  TIP3      OH2             3.8108129974       11.2788995094       66.0021675098  TIP3      99              0.0000000000
     17670       235  TIP3      H1              2.9120385233       11.6488281326       66.1679209749  TIP3      99              0.0000000000
     17671       235  TIP3      H2              4.1684141054       11.9046656410       65.3451364031  TIP3      99              0.0000000000
     17672       236  TIP3      OH2            11.2039822031        3.5592688401       76.0595326007  TIP3      100             0.0000000000
     17673       236  TIP3      H1             11.9491183250        4.0047685319       76.5204150298  TIP3      100             0.0000000000
     17674       236  TIP3      H2             11.1213097269        2.7378297539       76.5798593946  TIP3      100             0.0000000000
     17675       237  TIP3      OH2            11.9431347998        3.1402929053       66.8209484061  TIP3      101             0.0000000000
     17676       237  TIP3      H1             12.2658659124        4.0449323817       66.6339796530  TIP3      101             0.0000000000
     17677       237  TIP3      H2             12.5270630180        2.9319541975       67.5812182089  TIP3      101             0.0000000000
     17678       238  TIP3      OH2             9.9740829634       15.2531159378       65.7878237586  TIP3      102             0.0000000000
     17679       238  TIP3      H1              9.0537311512       15.5101130321       65.6168946030  TIP3      102             0.0000000000
     17680       238  TIP3      H2             10.4031366094       15.4105609618       64.9164222009  TIP3      102             0.0000000000
     17681       239  TIP3      OH2             8.6091540218        4.9908281335       67.6387561987  TIP3      103             0.0000000000
     17682       239  TIP3      H1              9.3628304315        5.5638309639       67.9055822961  TIP3      103             0.0000000000
     17683       239  TIP3      H2              8.4824799173        4.4592378757       68.4447826837  TIP3      103             0.0000000000
     17684       240  TIP3      OH2            10.3044054181        6.0906210933       76.7582467853  TIP3      104             0.0000000000
     17685       240  TIP3      H1             10.4465054700        6.2030299544       77.7145466132  TIP3      104             0.0000000000
     17686       240  TIP3      H2             10.6096132009        5.1749737274       76.5965450566  TIP3      104             0.0000000000
     17687       241  TIP3      OH2            10.3019427352        1.8906285699       68.7030716705  TIP3      105             0.0000000000
     17688       241  TIP3      H1              9.8468864002        2.6008023510       69.1843247209  TIP3      105             0.0000000000
     17689       241  TIP3      H2             10.7945369419        2.4102640524       68.0403211874  TIP3      105             0.0000000000
     17690       242  TIP3      OH2             7.1827529968       16.3364541867       65.8752793758  TIP3      106             0.0000000000
     17691       242  TIP3      H1              7.4093513850       17.1058926589       65.3147689144  TIP3      106             0.0000000000
     17692       242  TIP3      H2              6.9609792410       16.7643100080       66.7257942216  TIP3      106             0.0000000000
     17693       243  TIP3      OH2             6.0493227912        3.1867043225       65.2193040104  TIP3      107             0.0000000000
     17694       243  TIP3      H1              5.8687758069        3.9553182297       65.7950600978  TIP3      107             0.0000000000
     17695       243  TIP3      H2              6.1968956137        2.5186187286       65.9016707109  TIP3      107             0.0000000000
     17696       244  TIP3      OH2            15.6906286483        3.7433723165       77.4264445896  TIP3      108             0.0000000000
     17697       244  TIP3      H1             14.8011996051        4.1548581151       77.4064079626  TIP3      108             0.0000000000
     17698       244  TIP3      H2             15.7116873492        3.3753668311       76.5030449965  TIP3      108             0.0000000000
     17699       245  TIP3      OH2            15.1309386971        7.9024770856       71.3850976510  TIP3      109             0.0000000000
     17700       245  TIP3      H1             14.2436387158        7.5204454420       71.1796618451  TIP3      109             0.0000000000
     17701       245  TIP3      H2             15.5607682379        7.1832613093       71.9267142277  TIP3      109             0.0000000000
     17702       246  TIP3      OH2             4.4197911874       13.7753402097       64.0737736711  TIP3      110             0.0000000000
     17703       246  TIP3      H1              4.7083696722       14.6994978089       64.0875894356  TIP3      110             0.0000000000
     17704       246  TIP3      H2              5.2484273999       13.3468032064       63.7179857624  TIP3      110             0.0000000000
     17705       247  TIP3      OH2            15.5782474610       16.5969956821       73.1676990970  TIP3      111             0.0000000000
     17706       247  TIP3      H1             15.6873839880       17.2774467623       72.4628000937  TIP3      111             0.0000000000
     17707       247  TIP3      H2             16.5184495236       16.4971015666       73.4215131030  TIP3      111             0.0000000000
     17708       248  TIP3      OH2             3.2654840814        1.2326054076       71.8215132728  TIP3      112             0.0000000000
     17709       248  TIP3      H1              3.2329662449        1.0038843586       70.8673138648  TIP3      112             0.0000000000
     17710       248  TIP3      H2              3.1772290301        0.3377095830       72.2332148727  TIP3      112             0.0000000000
     17711       249  TIP3      OH2             2.3194025762       14.7665433008       69.0219876582  TIP3      113             0.0000000000
     17712       249  TIP3      H1              1.9704573402       15.3771802651       69.7154352978  TIP3      113             0.0000000000
     17713       249  TIP3      H2              1.9534937610       15.1626551534       68.2099838604  TIP3      113             0.0000000000
     17714       250  TIP3      OH2             1.0079636078       17.1217218262       78.5437579253  TIP3      114             0.0000000000
     17715       250  TIP3      H1              1.8757448910       17.4542683736       78.8312273824  TIP3      114             0.0000000000
     17716       250  TIP3      H2              0.8878773690       16.3253540693       79.0805923444  TIP3      114             0.0000000000
     17717       251  TIP3      OH2             6.0838965564       15.8857304762       81.4898771072  TIP3      115             0.0000000000
     17718       251  TIP3      H1              7.0477541295       15.8311394607       81.3826180191  TIP3      115             0.0000000000
     17719       251  TIP3      H2              5.7613003428       15.6559167279       80.5885743547  TIP3      115             0.0000000000
     17720       252  TIP3      OH2            12.1608902849       15.0578680823       79.8878758228  TIP3      116             0.0000000000
     17721       252  TIP3      H1             11.9540676693       14.1350978665       80.1750391902  TIP3      116             0.0000000000
     17722       252  TIP3      H2             13.0428937815       15.1451989359       80.3168092686  TIP3      116             0.0000000000
     17723       253  TIP3      OH2             1.4329908283       11.8916449645       80.3449731233  TIP3      117             0.0000000000
     17724       253  TIP3      H1              1.4283855334       11.2929179570       81.1136933145  TIP3      117             0.0000000000
     17725       253  TIP3      H2              0.5199335058       11.7429976348       80.0123769913  TIP3      117             0.0000000000
     17726       254  TIP3      OH2             7.8952910010       11.2181634139       79.6639807418  TIP3      118             0.0000000000
     17727       254  TIP3      H1              7.7148704199       11.8547655851       78.9452352907  TIP3      118             0.0000000000
     17728       254  TIP3      H2              7.7374776519       10.3618673711       79.2031547613  TIP3      118             0.0000000000
     17729       255  TIP3      OH2            13.5598299830       11.0729397153       77.5117254108  TIP3      119             0.0000000000
     17730       255  TIP3      H1             14.4437093152       11.4973110179       77.5676254686  TIP3      119             0.0000000000
     17731       255  TIP3      H2             13.0323717954       11.8886052611       77.6107181157  TIP3      119             0.0000000000
     17732       256  TIP3      OH2             1.9637806173        8.3207016703       79.8982478482  TIP3      120             0.0000000000
     17733       256  TIP3      H1              2.8773062019        8.4119679515       79.5872460965  TIP3      120             0.0000000000
     17734       256  TIP3      H2              1.9398718348        8.9981771499       80.5998911783  TIP3      120             0.0000000000
     17735       257  TIP3      OH2             5.8214325198        7.3794798218       76.6624978489  TIP3      121             0.0000000000
     17736       257  TIP3      H1              5.2580415275        8.1601381897       76.8580153122  TIP3      121             0.0000000000
     17737       257  TIP3      H2              6.6314334219        7.8408905403       76.3543140278  TIP3      121             0.0000000000
     17738       258  TIP3      OH2            11.4804862734       10.1675669348       80.6228694990  TIP3      122             0.0000000000
     17739       258  TIP3      H1             12.2023603220        9.7018203218       80.1505208599  TIP3      122             0.0000000000
     17740       258  TIP3      H2             11.1862934651        9.5210874279       81.2878395337  TIP3      122             0.0000000000
     17741       259  TIP3      OH2             6.9471751262        5.4720058433       78.1607325988  TIP3      123             0.0000000000
     17742       259  TIP3      H1              6.7773046770        4.6735907185       77.6162415550  TIP3      123             0.0000000000
     17743       259  TIP3      H2              6.5909798146        6.1699324448       77.5592472710  TIP3      123             0.0000000000
     17744       260  TIP3      OH2             7.0878749982        3.3347322844       76.1158424678  TIP3      124             0.0000000000
     17745       260  TIP3      H1              7.6876315764        3.8758566050       75.5587236698  TIP3      124             0.0000000000
     17746       260  TIP3      H2              6.3156468966        3.2908355518       75.5113519532  TIP3      124             0.0000000000
     17747       261  TIP3      OH2             8.2358887579        8.8274365237       75.8679753002  TIP3      125             0.0000000000
     17748       261  TIP3      H1              9.0726306154        9.2349584859       75.6183936535  TIP3      125             0.0000000000
     17749       261  TIP3      H2              7.6097305748        9.4881070259       75.5107036742  TIP3      125             0.0000000000
     17750       262  TIP3      OH2            12.3927014504        6.5096159034       81.1099071970  TIP3      126             0.0000000000
     17751       262  TIP3      H1             12.7679863229        5.6187107190       81.1798803070  TIP3      126             0.0000000000
     17752       262  TIP3      H2             13.1231633707        7.0522641194       81.4520954664  TIP3      126             0.0000000000
     17753       263  TIP3      OH2            14.1268475290        9.4912316943       79.6641718962  TIP3      127             0.0000000000
     17754       263  TIP3      H1             13.8603880095       10.0115638028       78.8749380729  TIP3      127             0.0000000000
     17755       263  TIP3      H2             15.0175450914        9.1776531776       79.4120758630  TIP3      127             0.0000000000
     17756       264  TIP3      OH2             5.5517110957        5.7692713183       80.4976620141  TIP3      128             0.0000000000
     17757       264  TIP3      H1              4.6115917994        5.5040171101       80.4476232980  TIP3      128             0.0000000000
     17758       264  TIP3      H2              5.8071849226        5.8145930309       79.5532197016  TIP3      128             0.0000000000
     17759       265  TIP3      OH2             7.7305349017        0.8026306268       75.8532784582  TIP3      129             0.0000000000
     17760       265  TIP3      H1              7.6021579638        1.7520982405       76.0790047061  TIP3      129             0.0000000000
     17761       265  TIP3      H2              6.8185535214        0.5488013235       75.6511320096  TIP3      129             0.0000000000
     17762       266  TIP3      OH2             8.7620979807        4.9033893872       80.1436181708  TIP3      130             0.0000000000
     17763       266  TIP3      H1              8.1037270429        4.6695498453       80.8245189022  TIP3      130             0.0000000000
     17764       266  TIP3      H2              8.1800776271        4.9135891736       79.3526600210  TIP3      130             0.0000000000
     17765       267  TIP3      OH2            11.2766388956        4.2989916809       79.1956456401  TIP3      131             0.0000000000
     17766       267  TIP3      H1             10.3716646653        4.3054579218       79.5601271633  TIP3      131             0.0000000000
     17767       267  TIP3      H2             11.7524536608        3.7215000842       79.8295913732  TIP3      131             0.0000000000
     17768       268  TIP3      OH2            13.1435131883        2.8712272167       80.8010943767  TIP3      132             0.0000000000
     17769       268  TIP3      H1             13.2415155995        1.8999293609       80.8906515351  TIP3      132             0.0000000000
     17770       268  TIP3      H2             13.0021325240        3.1109998835       81.7459125156  TIP3      132             0.0000000000
     17771       269  TIP3      OH2             3.3074901472        4.1234574624       80.9496053650  TIP3      133             0.0000000000
     17772       269  TIP3      H1              3.5576068040        3.4617175103       80.2686341644  TIP3      133             0.0000000000
     17773       269  TIP3      H2              2.9852673478        3.4988047082       81.6337445069  TIP3      133             0.0000000000
     17774       270  TIP3      OH2             8.6626626911        0.9513780946       78.7298064267  TIP3      134             0.0000000000
     17775       270  TIP3      H1              8.8230108057        0.2710508329       79.4131453674  TIP3      134             0.0000000000
     17776       270  TIP3      H2              8.0528254300        0.4805269891       78.1434614585  TIP3      134             0.0000000000
     17777       271  TIP3      OH2             8.3966707492        1.7219203592       81.3246638507  TIP3      135             0.0000000000
     17778       271  TIP3      H1              8.4152946836        1.7745371406       80.3489216971  TIP3      135             0.0000000000
     17779       271  TIP3      H2              7.7432451466        2.4253335433       81.5235244425  TIP3      135             0.0000000000
     17780       272  TIP3      OH2             7.9900004198       18.3961890021       64.4074107668  TIP3      136             0.0000000000
     17781       272  TIP3      H1              8.3625503555       17.7926222794       63.7383462926  TIP3      136             0.0000000000
     17782       272  TIP3      H2              7.1789719746       18.6375527986       63.9033529158  TIP3      136             0.0000000000
     17783       273  TIP3      OH2             1.8295499131       12.9800996614       63.4994516778  TIP3      137             0.0000000000
     17784       273  TIP3      H1              2.7819884007       13.1141189763       63.7217183044  TIP3      137             0.0000000000
     17785       273  TIP3      H2              1.4276881161       12.8386295740       64.3774682051  TIP3      137             0.0000000000
     17786       274  TIP3      OH2            66.1705225570       18.3394357997       68.5858935294  TIP3      138             0.0000000000
     17787       274  TIP3      H1             65.3770360411       18.4367261743       69.1444972603  TIP3      138             0.0000000000
     17788       274  TIP3      H2             66.7317036596       17.7361743350       69.1017117110  TIP3      138             0.0000000000
     17789       275  TIP3      OH2             1.2662939787       16.6616699224       70.6282019907  TIP3      139             0.0000000000
     17790       275  TIP3      H1              0.6946732400       16.0374702599       71.1014378033  TIP3      139             0.0000000000
     17791       275  TIP3      H2              1.7769000951       17.0540386038       71.3668955515  TIP3      139             0.0000000000
     17792       276  TIP3      OH2            18.2019906608       16.5828748666       73.5812254880  TIP3      140             0.0000000000
     17793       276  TIP3      H1             18.4756676778       17.0749510995       74.3723064027  TIP3      140             0.0000000000
     17794       276  TIP3      H2             18.7390866727       17.0015757307       72.8875409783  TIP3      140             0.0000000000
     17795       277  TIP3      OH2            18.0828184161       16.6457368518       76.7074344095  TIP3      141             0.0000000000
     17796       277  TIP3      H1             17.7261011724       15.9165005744       76.1600837270  TIP3      141             0.0000000000
     17797       277  TIP3      H2             18.3416830490       16.1419337960       77.5077394626  TIP3      141             0.0000000000
     17798       278  TIP3      OH2            16.7193830085       12.5098613020       81.4167767945  TIP3      142             0.0000000000
     17799       278  TIP3      H1             15.8529307079       12.7104538355       81.8484743962  TIP3      142             0.0000000000
     17800       278  TIP3      H2             17.2034722161       13.3188668159       81.6797642262  TIP3      142             0.0000000000
     17801       279  TIP3      OH2            17.7848756697       10.9423082186       66.0843442882  TIP3      143             0.0000000000
     17802       279  TIP3      H1             18.4795625940       11.5418665354       66.4354083329  TIP3      143             0.0000000000
     17803       279  TIP3      H2             17.7488376296       10.2599331326       66.7957578760  TIP3      143             0.0000000000
     17804       280  TIP3      OH2            17.9193068534        9.1727563450       68.1836042621  TIP3      144             0.0000000000
     17805       280  TIP3      H1             17.3587858905        8.3742959382       68.3445332464  TIP3      144             0.0000000000
     17806       280  TIP3      H2             18.4958935279        9.1262855383       68.9627393364  TIP3      144             0.0000000000
     17807       281  TIP3      OH2            18.0614162521       11.9664870197       73.4936719506  TIP3      145             0.0000000000
     17808       281  TIP3      H1             18.7880990270       11.4010458900       73.1739335220  TIP3      145             0.0000000000
     17809       281  TIP3      H2             18.4850133862       12.8545634698       73.4391436554  TIP3      145             0.0000000000
     17810       282  TIP3      OH2            16.6170161119       14.5509049328       75.7728022834  TIP3      146             0.0000000000
     17811       282  TIP3      H1             15.8761045815       14.9225679962       76.2757021102  TIP3      146             0.0000000000
     17812       282  TIP3      H2             16.1761724325       14.3356151960       74.9222882192  TIP3      146             0.0000000000
     17813       283  TIP3      OH2            16.8641930752        6.3004966554       63.1305003541  TIP3      147             0.0000000000
     17814       283  TIP3      H1             17.0984616944        6.9363355245       62.4283224269  TIP3      147             0.0000000000
     17815       283  TIP3      H2             16.4624147257        5.5864248354       62.5981223769  TIP3      147             0.0000000000
     17816       284  TIP3      OH2            16.1807068131        7.3115002162       69.0146237455  TIP3      148             0.0000000000
     17817       284  TIP3      H1             15.7178523871        6.5758437910       68.5547444581  TIP3      148             0.0000000000
     17818       284  TIP3      H2             15.8747911484        7.2601454039       69.9437345551  TIP3      148             0.0000000000
     17819       285  TIP3      OH2             0.9848403183        9.3678299323       73.2496134406  TIP3      149             0.0000000000
     17820       285  TIP3      H1              1.0936719860        9.4368625541       72.2718261955  TIP3      149             0.0000000000
     17821       285  TIP3      H2              1.9160100375        9.2242794993       73.5292328385  TIP3      149             0.0000000000
     17822       286  TIP3      OH2            17.1718450706        9.1899630519       78.8072168935  TIP3      150             0.0000000000
     17823       286  TIP3      H1             17.5739809808        8.3354285142       79.0832487459  TIP3      150             0.0000000000
     17824       286  TIP3      H2             17.9586473858        9.6334079342       78.4236917492  TIP3      150             0.0000000000
     17825       287  TIP3      OH2            18.2627460446        6.9065562075       79.8847572059  TIP3      151             0.0000000000
     17826       287  TIP3      H1             17.4790311312        6.4364260230       79.5207846990  TIP3      151             0.0000000000
     17827       287  TIP3      H2             18.9928795668        6.3428850176       79.5781825204  TIP3      151             0.0000000000
     17828       288  TIP3      OH2            15.6339134455        3.9834933409       62.2292838253  TIP3      152             0.0000000000
     17829       288  TIP3      H1             15.6200082808        3.8786796848       63.1923006188  TIP3      152             0.0000000000
     17830       288  TIP3      H2             14.7006100063        3.8770581169       61.9801733200  TIP3      152             0.0000000000
     17831       289  TIP3      OH2            15.4968200779        5.2752295577       67.3146837710  TIP3      153             0.0000000000
     17832       289  TIP3      H1             15.5350159980        4.3272209901       67.5343494056  TIP3      153             0.0000000000
     17833       289  TIP3      H2             16.4579984214        5.4704182847       67.2972061265  TIP3      153             0.0000000000
     17834       290  TIP3      OH2            16.6190740451        6.3751468576       72.8795091449  TIP3      154             0.0000000000
     17835       290  TIP3      H1             17.5976888500        6.2068434762       72.9292397322  TIP3      154             0.0000000000
     17836       290  TIP3      H2             16.4302248077        6.1971745779       73.8264259008  TIP3      154             0.0000000000
     17837       291  TIP3      OH2            16.3123120016        6.6691730590       75.6033348555  TIP3      155             0.0000000000
     17838       291  TIP3      H1             15.4161993519        6.9089343618       75.9154085113  TIP3      155             0.0000000000
     17839       291  TIP3      H2             16.7823120357        7.5321314516       75.6289487866  TIP3      155             0.0000000000
     17840       292  TIP3      OH2             1.6163753565        4.7436173037       78.9791010505  TIP3      156             0.0000000000
     17841       292  TIP3      H1              2.1264430158        4.6308128961       79.8116617310  TIP3      156             0.0000000000
     17842       292  TIP3      H2              0.6940275776        4.7692345618       79.3204582970  TIP3      156             0.0000000000
     17843       293  TIP3      OH2            19.1408494119        1.1093327794       81.0047214952  TIP3      157             0.0000000000
     17844       293  TIP3      H1             19.4857224620        0.7065790771       80.1909178646  TIP3      157             0.0000000000
     17845       293  TIP3      H2             18.9806652367        2.0367610950       80.7062561968  TIP3      157             0.0000000000
     17846       294  TIP3      OH2            16.6044945904        2.6468254429       67.5351665929  TIP3      158             0.0000000000
     17847       294  TIP3      H1             16.6697563400        2.3958976264       68.4842246447  TIP3      158             0.0000000000
     17848       294  TIP3      H2             15.7448194292        2.2507934985       67.2669398813  TIP3      158             0.0000000000
     17849       295  TIP3      OH2             1.9515653832        3.4336881227       73.0213747230  TIP3      159             0.0000000000
     17850       295  TIP3      H1              2.3413462266        2.5485920900       72.8571737843  TIP3      159             0.0000000000
     17851       295  TIP3      H2              2.7204035916        4.0521775469       73.0401519214  TIP3      159             0.0000000000
     17852       296  TIP3      OH2             0.2818165699        6.6531754286       73.3902778984  TIP3      160             0.0000000000
     17853       296  TIP3      H1              0.9316313828        6.2571047981       72.7750918653  TIP3      160             0.0000000000
     17854       296  TIP3      H2              0.6702650062        7.5410411689       73.4917720116  TIP3      160             0.0000000000
     17855       297  TIP3      OH2            18.3413303765        3.1609615203       79.5189409076  TIP3      161             0.0000000000
     17856       297  TIP3      H1             17.5632541810        3.3673943645       80.0873251424  TIP3      161             0.0000000000
     17857       297  TIP3      H2             17.9180951241        2.6131043470       78.8495118839  TIP3      161             0.0000000000
     17858       298  TIP3      OH2            18.4145477609        3.6405111362       64.7053442369  TIP3      162             0.0000000000
     17859       298  TIP3      H1             18.5936421042        3.0607278103       63.9592944441  TIP3      162             0.0000000000
     17860       298  TIP3      H2             19.2909318601        3.6185171980       65.1307638276  TIP3      162             0.0000000000
     17861       299  TIP3      OH2             1.1211743257        1.3070700502       67.4728925911  TIP3      163             0.0000000000
     17862       299  TIP3      H1              0.5890829835        1.9570852296       67.9608651393  TIP3      163             0.0000000000
     17863       299  TIP3      H2              1.1598174294        1.7062150013       66.6009532538  TIP3      163             0.0000000000
     17864       300  TIP3      OH2            14.9994644499       17.6005747558       68.6087780934  TIP3      164             0.0000000000
     17865       300  TIP3      H1             15.7325758236       17.3068366880       68.0228656412  TIP3      164             0.0000000000
     17866       300  TIP3      H2             15.2379425906       18.5250630830       68.7844843685  TIP3      164             0.0000000000
     17867       301  TIP3      OH2             0.3645318318        1.1017619740       75.1565072792  TIP3      165             0.0000000000
     17868       301  TIP3      H1              0.0518334875        1.7762289237       75.7647890169  TIP3      165             0.0000000000
     17869       301  TIP3      H2              0.3834023494        1.5715627621       74.2954800425  TIP3      165             0.0000000000
     17870       302  TIP3      OH2             2.6845607283       14.1964762240       79.8362138108  TIP3      166             0.0000000000
     17871       302  TIP3      H1              2.2573014590       13.4112797072       79.4507717059  TIP3      166             0.0000000000
     17872       302  TIP3      H2              2.2189960827       14.2059960432       80.6820831497  TIP3      166             0.0000000000
     17873       303  TIP3      OH2             5.4226432810       15.5458816538       76.3261971954  TIP3      167             0.0000000000
     17874       303  TIP3      H1              5.2600565789       16.4631013501       76.0212897693  TIP3      167             0.0000000000
     17875       303  TIP3      H2              6.3968574203       15.5245651259       76.1918703461  TIP3      167             0.0000000000
     17876       304  TIP3      OH2             9.7416745873       16.8542890465       78.6971337289  TIP3      168             0.0000000000
     17877       304  TIP3      H1              9.9384807609       16.8103964881       79.6483323051  TIP3      168             0.0000000000
     17878       304  TIP3      H2             10.6018453730       17.1718716070       78.3495512953  TIP3      168             0.0000000000
     17879       305  TIP3      OH2            12.0410863643       18.3707841831       78.4010097014  TIP3      169             0.0000000000
     17880       305  TIP3      H1             12.8189367107       17.8163884725       78.2713969861  TIP3      169             0.0000000000
     17881       305  TIP3      H2             12.2911973341       18.8769330717       79.2009143668  TIP3      169             0.0000000000
     17882       306  TIP3      OH2            16.9333316622        0.2972374807       77.6471929597  TIP3      170             0.0000000000
     17883       306  TIP3      H1             16.8147550350        1.1814851595       77.2594242992  TIP3      170             0.0000000000
     17884       306  TIP3      H2             17.1604678435       -0.2436217506       76.8702030510  TIP3      170             0.0000000000
     17885       307  TIP3      OH2             2.8429399723       18.9426996057       76.0409350900  TIP3      171             0.0000000000
     17886       307  TIP3      H1              2.1076248515       19.4925711681       75.6826435403  TIP3      171             0.0000000000
     17887       307  TIP3      H2              2.7155543865       19.1266041954       76.9943192335  TIP3      171             0.0000000000
     17888       308  TIP3      OH2             5.5147000879       18.2061206371       74.7376828372  TIP3      172             0.0000000000
     17889       308  TIP3      H1              4.7073428815       18.4410361600       75.2330375415  TIP3      172             0.0000000000
     17890       308  TIP3      H2              5.5453110868       18.9408091488       74.0969207723  TIP3      172             0.0000000000
     17891       309  TIP3      OH2             9.8524090856       17.8040593534       74.3017458530  TIP3      173             0.0000000000
     17892       309  TIP3      H1              9.3543687385       18.1635919777       73.5453606137  TIP3      173             0.0000000000
     17893       309  TIP3      H2              9.8857059493       18.5835421095       74.8857135857  TIP3      173             0.0000000000
     17894       310  TIP3      OH2            12.0870039879       16.5318649731       75.6140310081  TIP3      174             0.0000000000
     17895       310  TIP3      H1             11.4708086309       17.0882564885       75.0923046049  TIP3      174             0.0000000000
     17896       310  TIP3      H2             12.9329670238       16.9453870781       75.3807346083  TIP3      174             0.0000000000
     17897       311  TIP3      OH2            15.1429123904       18.1589808744       75.3918250503  TIP3      175             0.0000000000
     17898       311  TIP3      H1             15.0701813369       19.1062723158       75.1433101597  TIP3      175             0.0000000000
     17899       311  TIP3      H2             15.2732794624       17.7587671711       74.5074549676  TIP3      175             0.0000000000
     17900       312  TIP3      OH2             2.7672858415       17.1046247435       72.8052556452  TIP3      176             0.0000000000
     17901       312  TIP3      H1              2.3009667978       16.7578062314       73.5757531677  TIP3      176             0.0000000000
     17902       312  TIP3      H2              3.6475437242       16.7053359940       72.8861721319  TIP3      176             0.0000000000
     17903       313  TIP3      OH2             4.6103610094       15.3467489780       71.5380057535  TIP3      177             0.0000000000
     17904       313  TIP3      H1              4.1372210124       14.8492645408       72.2238802893  TIP3      177             0.0000000000
     17905       313  TIP3      H2              5.3926756609       15.6748804346       72.0464323960  TIP3      177             0.0000000000
     17906       314  TIP3      OH2             6.6805670385       16.0590522056       73.0572900153  TIP3      178             0.0000000000
     17907       314  TIP3      H1              7.3538707195       15.3625531176       72.9649118218  TIP3      178             0.0000000000
     17908       314  TIP3      H2              6.9862089863       16.5432312532       73.8529950528  TIP3      178             0.0000000000
     17909       315  TIP3      OH2            10.9686561254        2.3500675751       72.0990213472  TIP3      179             0.0000000000
     17910       315  TIP3      H1             10.1248465591        1.9440032852       71.8088329659  TIP3      179             0.0000000000
     17911       315  TIP3      H2             11.5956718062        1.7663459087       71.6213102175  TIP3      179             0.0000000000
     17912       316  TIP3      OH2            16.4736751008        0.5012604883       72.1519759839  TIP3      180             0.0000000000
     17913       316  TIP3      H1             16.9183958355        0.8814202121       71.3598794190  TIP3      180             0.0000000000
     17914       316  TIP3      H2             15.8006785860       -0.0724320336       71.7526322430  TIP3      180             0.0000000000
     17915       317  TIP3      OH2            17.2422027699        1.8242386261       69.9586671364  TIP3      181             0.0000000000
     17916       317  TIP3      H1             17.7136314731        1.2228202716       69.3339275744  TIP3      181             0.0000000000
     17917       317  TIP3      H2             17.9466462376        2.5118111643       70.0618251083  TIP3      181             0.0000000000
     17918       318  TIP3      OH2             3.3716384652        0.7441175694       69.1690419813  TIP3      182             0.0000000000
     17919       318  TIP3      H1              2.6331167193        0.7048967480       68.5161622108  TIP3      182             0.0000000000
     17920       318  TIP3      H2              4.0332783722        0.1670066522       68.7091274036  TIP3      182             0.0000000000
     17921       319  TIP3      OH2             7.1662811238        0.7349489584       69.5223828431  TIP3      183             0.0000000000
     17922       319  TIP3      H1              8.0665819589        1.0760379356       69.3892417920  TIP3      183             0.0000000000
     17923       319  TIP3      H2              7.2948823663       -0.2131517023       69.7071675980  TIP3      183             0.0000000000
     17924       320  TIP3      OH2            13.0967053221        0.7850334601       70.4989464902  TIP3      184             0.0000000000
     17925       320  TIP3      H1             13.0427443221        0.8740813696       69.5376099967  TIP3      184             0.0000000000
     17926       320  TIP3      H2             13.7052982967        0.0379252358       70.5849204750  TIP3      184             0.0000000000
     17927       321  TIP3      OH2            14.2931482688        1.6342277410       66.6372675800  TIP3      185             0.0000000000
     17928       321  TIP3      H1             13.4151887423        1.7485315888       66.2374153565  TIP3      185             0.0000000000
     17929       321  TIP3      H2             14.1930201593        0.7782585448       67.1075554996  TIP3      185             0.0000000000
     17930       322  TIP3      OH2             1.3909801187       16.7308501348       66.6883501311  TIP3      186             0.0000000000
     17931       322  TIP3      H1              0.4294804227       16.7627287003       66.6191245416  TIP3      186             0.0000000000
     17932       322  TIP3      H2              1.6639733138       17.4632418344       66.0842464487  TIP3      186             0.0000000000
     17933       323  TIP3      OH2            17.1277565943       16.8935737798       67.0822495722  TIP3      187             0.0000000000
     17934       323  TIP3      H1             16.8417177102       16.0248808928       66.7099774776  TIP3      187             0.0000000000
     17935       323  TIP3      H2             16.9263074041       17.5157055518       66.3471607728  TIP3      187             0.0000000000
     17936       324  TIP3      OH2             2.7305733747        1.6128128448       79.3146505327  TIP3      188             0.0000000000
     17937       324  TIP3      H1              2.1135653784        0.9448407076       78.9500400876  TIP3      188             0.0000000000
     17938       324  TIP3      H2              3.4504771578        1.0582299826       79.6474249660  TIP3      188             0.0000000000
     17939       325  TIP3      OH2             5.1999711850       66.3006306285       80.3305198629  TIP3      189             0.0000000000
     17940       325  TIP3      H1              6.1711203254       66.3576764844       80.3758621178  TIP3      189             0.0000000000
     17941       325  TIP3      H2              5.0826336628       65.3437577446       80.4366255707  TIP3      189             0.0000000000
     17942       326  TIP3      OH2            13.2204656820       66.2002432700       81.1473528945  TIP3      190             0.0000000000
     17943       326  TIP3      H1             12.4714942618       65.5955912902       81.0600221613  TIP3      190             0.0000000000
     17944       326  TIP3      H2             13.8273697165       65.8285973788       80.4733375631  TIP3      190             0.0000000000
     17945       327  TIP3      OH2            16.5644084655       15.9037851965       79.3871288606  TIP3      191             0.0000000000
     17946       327  TIP3      H1             15.8465096835       16.0123845769       78.7305333455  TIP3      191             0.0000000000
     17947       327  TIP3      H2             16.4780200397       16.7115752720       79.9211953915  TIP3      191             0.0000000000
     17948       328  TIP3      OH2            31.4638725057        9.8752508275       69.3829814144  TIP3      192             0.0000000000
     17949       328  TIP3      H1             31.6180032476       10.7950084818       69.6668267378  TIP3      192             0.0000000000
     17950       328  TIP3      H2             30.5927258281        9.9768842855       68.9785798293  TIP3      192             0.0000000000
     17951       329  TIP3      OH2            30.1809709500        8.7211287616       72.4921354078  TIP3      193             0.0000000000
     17952       329  TIP3      H1             29.9137810337        8.3848291546       73.3690999737  TIP3      193             0.0000000000
     17953       329  TIP3      H2             29.3618694712        8.6271121381       71.9758230464  TIP3      193             0.0000000000
     17954       330  TIP3      OH2            21.9261451139        8.8667364940       74.3191315716  TIP3      194             0.0000000000
     17955       330  TIP3      H1             22.0350827434        8.0798198692       74.8767996424  TIP3      194             0.0000000000
     17956       330  TIP3      H2             22.7311131535        9.3517407286       74.5616260332  TIP3      194             0.0000000000
     17957       331  TIP3      OH2            33.2238459764       12.1821714279       71.5220368857  TIP3      195             0.0000000000
     17958       331  TIP3      H1             33.1157732910       11.4034470992       72.0835701616  TIP3      195             0.0000000000
     17959       331  TIP3      H2             33.5687088249       12.8478488824       72.1531022503  TIP3      195             0.0000000000
     17960       332  TIP3      OH2            23.1242738233       13.3039423358       72.5676699218  TIP3      196             0.0000000000
     17961       332  TIP3      H1             22.7291220440       12.4496965503       72.3184646404  TIP3      196             0.0000000000
     17962       332  TIP3      H2             24.0737847325       13.1413693844       72.3943650816  TIP3      196             0.0000000000
     17963       333  TIP3      OH2            19.9689196255        6.6016771094       68.0850887922  TIP3      197             0.0000000000
     17964       333  TIP3      H1             19.6947079644        7.5166335261       67.9644259502  TIP3      197             0.0000000000
     17965       333  TIP3      H2             19.1430899757        6.1779528194       67.7629286914  TIP3      197             0.0000000000
     17966       334  TIP3      OH2            19.5642942587        8.6885405664       70.6717663554  TIP3      198             0.0000000000
     17967       334  TIP3      H1             20.0772721655        7.8519375547       70.8312488707  TIP3      198             0.0000000000
     17968       334  TIP3      H2             20.2803308615        9.2164041701       70.2888009225  TIP3      198             0.0000000000
     17969       335  TIP3      OH2            30.3448692891       17.4058612958       70.9130174972  TIP3      199             0.0000000000
     17970       335  TIP3      H1             31.0649599512       16.9646406964       70.3975262600  TIP3      199             0.0000000000
     17971       335  TIP3      H2             30.4275506955       16.8380693304       71.6943734869  TIP3      199             0.0000000000
     17972       336  TIP3      OH2            27.8885551861       11.5128561780       73.7670380125  TIP3      200             0.0000000000
     17973       336  TIP3      H1             28.2708190402       11.4215400869       72.8857587462  TIP3      200             0.0000000000
     17974       336  TIP3      H2             28.6939380563       11.7441381598       74.2859575770  TIP3      200             0.0000000000
     17975       337  TIP3      OH2            36.6068645291        3.0626183106       73.3961809345  TIP3      201             0.0000000000
     17976       337  TIP3      H1             37.1147302680        3.6648874612       73.9703240846  TIP3      201             0.0000000000
     17977       337  TIP3      H2             37.2324888094        2.8687956402       72.6795630157  TIP3      201             0.0000000000
     17978       338  TIP3      OH2            31.8743169246        6.0999443631       73.9829438689  TIP3      202             0.0000000000
     17979       338  TIP3      H1             32.0685389367        5.2672374472       74.4393257486  TIP3      202             0.0000000000
     17980       338  TIP3      H2             31.7805542279        5.8152318466       73.0543316352  TIP3      202             0.0000000000
     17981       339  TIP3      OH2            24.6045500838        4.0230830028       70.4138279634  TIP3      203             0.0000000000
     17982       339  TIP3      H1             24.6457139316        4.8212015294       69.8486369441  TIP3      203             0.0000000000
     17983       339  TIP3      H2             24.0336961892        3.4464065799       69.8553112805  TIP3      203             0.0000000000
     17984       340  TIP3      OH2            32.4722212147        3.8160353539       69.1122898528  TIP3      204             0.0000000000
     17985       340  TIP3      H1             32.8101649035        3.5841109040       70.0025226281  TIP3      204             0.0000000000
     17986       340  TIP3      H2             33.0879943388        4.5360873197       68.8834758027  TIP3      204             0.0000000000
     17987       341  TIP3      OH2            21.1443250553        6.6651412225       71.5324109860  TIP3      205             0.0000000000
     17988       341  TIP3      H1             21.7291570693        6.2816655839       72.2095747786  TIP3      205             0.0000000000
     17989       341  TIP3      H2             21.3457688441        6.1038433736       70.7422333571  TIP3      205             0.0000000000
     17990       342  TIP3      OH2            25.4314709615        8.1573779607       70.5704054764  TIP3      206             0.0000000000
     17991       342  TIP3      H1             26.3274770101        7.8244496918       70.7643487350  TIP3      206             0.0000000000
     17992       342  TIP3      H2             25.1609252883        7.5271204271       69.8568137057  TIP3      206             0.0000000000
     17993       343  TIP3      OH2            37.2460286528        4.2876958408       76.0162672040  TIP3      207             0.0000000000
     17994       343  TIP3      H1             36.7042673105        4.9159852933       75.4974244511  TIP3      207             0.0000000000
     17995       343  TIP3      H2             36.9580320959        4.5066259843       76.9176419523  TIP3      207             0.0000000000
     17996       344  TIP3      OH2            23.7101296413        3.1561752773       74.7737987070  TIP3      208             0.0000000000
     17997       344  TIP3      H1             23.3756193888        3.6631078617       73.9985085348  TIP3      208             0.0000000000
     17998       344  TIP3      H2             22.9221977860        3.1708843364       75.3588670670  TIP3      208             0.0000000000
     17999       345  TIP3      OH2            30.4925085782       12.6284159906       68.4791137085  TIP3      209             0.0000000000
     18000       345  TIP3      H1             30.5048561051       12.8285336694       67.5228841882  TIP3      209             0.0000000000
     18001       345  TIP3      H2             30.2735534926       13.5128659415       68.8118381422  TIP3      209             0.0000000000
     18002       346  TIP3      OH2            25.5264958253       10.6839971690       74.6520051089  TIP3      210             0.0000000000
     18003       346  TIP3      H1             25.0139236484       11.4489039669       75.0051803612  TIP3      210             0.0000000000
     18004       346  TIP3      H2             26.3586580504       11.1321942576       74.3803417445  TIP3      210             0.0000000000
     18005       347  TIP3      OH2            34.0746215076        4.1728141993       71.4280845684  TIP3      211             0.0000000000
     18006       347  TIP3      H1             34.2576440864        3.2497836012       71.7060456857  TIP3      211             0.0000000000
     18007       347  TIP3      H2             34.6662409500        4.6532278778       72.0369526366  TIP3      211             0.0000000000
     18008       348  TIP3      OH2            23.2627903235        4.9113623350       72.6964581217  TIP3      212             0.0000000000
     18009       348  TIP3      H1             23.9024849581        5.5825870117       73.0086713512  TIP3      212             0.0000000000
     18010       348  TIP3      H2             23.6206596905        4.6835352119       71.8073777166  TIP3      212             0.0000000000
     18011       349  TIP3      OH2            24.3210620066       12.7526761387       75.7344080928  TIP3      213             0.0000000000
     18012       349  TIP3      H1             24.2172266997       13.6423305552       75.3637321620  TIP3      213             0.0000000000
     18013       349  TIP3      H2             23.4543585470       12.6659301573       76.2042591059  TIP3      213             0.0000000000
     18014       350  TIP3      OH2            19.8352827155       12.7644388578       66.5708665147  TIP3      214             0.0000000000
     18015       350  TIP3      H1             19.5047823785       13.6777907471       66.5457077592  TIP3      214             0.0000000000
     18016       350  TIP3      H2             20.1863070076       12.7348703147       67.4792847331  TIP3      214             0.0000000000
     18017       351  TIP3      OH2            34.0523156927       13.9132760234       73.5123736638  TIP3      215             0.0000000000
     18018       351  TIP3      H1             33.0913092456       14.0838390766       73.6438660163  TIP3      215             0.0000000000
     18019       351  TIP3      H2             34.2643204458       14.7626021273       73.0842036128  TIP3      215             0.0000000000
     18020       352  TIP3      OH2            34.2524917493        2.9428170417       74.9411382430  TIP3      216             0.0000000000
     18021       352  TIP3      H1             33.4571581476        2.9236435622       74.3571211788  TIP3      216             0.0000000000
     18022       352  TIP3      H2             34.9591405929        2.7828829813       74.2763096656  TIP3      216             0.0000000000
     18023       353  TIP3      OH2            27.2317661726        0.9135776414       72.1095967102  TIP3      217             0.0000000000
     18024       353  TIP3      H1             27.4147809128        0.4036150773       72.9051792992  TIP3      217             0.0000000000
     18025       353  TIP3      H2             26.3519127762        1.3035689499       72.3480297695  TIP3      217             0.0000000000
     18026       354  TIP3      OH2            32.3210419870       15.7674752035       70.1116801053  TIP3      218             0.0000000000
     18027       354  TIP3      H1             32.3084754981       14.9819505332       69.5456069006  TIP3      218             0.0000000000
     18028       354  TIP3      H2             33.0539145299       16.2701615578       69.6999358662  TIP3      218             0.0000000000
     18029       355  TIP3      OH2            33.5435771968       13.7150259223       68.3728522061  TIP3      219             0.0000000000
     18030       355  TIP3      H1             33.4806832880       13.0267739483       67.6796633927  TIP3      219             0.0000000000
     18031       355  TIP3      H2             33.3569136682       13.1735322842       69.1569721718  TIP3      219             0.0000000000
     18032       356  TIP3      OH2            34.9973523381       12.1718005364       77.2389386892  TIP3      220             0.0000000000
     18033       356  TIP3      H1             35.2367712419       11.5034919492       76.5558680483  TIP3      220             0.0000000000
     18034       356  TIP3      H2             35.1082567972       12.9793331374       76.6895613717  TIP3      220             0.0000000000
     18035       357  TIP3      OH2            29.5856279814        9.6280606438       66.5863020399  TIP3      221             0.0000000000
     18036       357  TIP3      H1             28.7294727985        9.7074396862       66.1483138309  TIP3      221             0.0000000000
     18037       357  TIP3      H2             29.9443754964       10.5042834344       66.3734031301  TIP3      221             0.0000000000
     18038       358  TIP3      OH2            36.9836533260        8.8078296922       75.0107152888  TIP3      222             0.0000000000
     18039       358  TIP3      H1             36.4034841806        9.5872385845       75.0501856278  TIP3      222             0.0000000000
     18040       358  TIP3      H2             37.5957167200        9.0925449976       74.2999110137  TIP3      222             0.0000000000
     18041       359  TIP3      OH2            33.3099588533        8.7311673281       67.6005001053  TIP3      223             0.0000000000
     18042       359  TIP3      H1             32.6205656735        9.1496280021       68.1666537531  TIP3      223             0.0000000000
     18043       359  TIP3      H2             33.9634235236        8.4699982772       68.2839921388  TIP3      223             0.0000000000
     18044       360  TIP3      OH2            32.7839086582        7.6889598584       77.1842973680  TIP3      224             0.0000000000
     18045       360  TIP3      H1             33.0446252800        8.6064673296       77.3576040625  TIP3      224             0.0000000000
     18046       360  TIP3      H2             32.0984635583        7.8168962691       76.5045507088  TIP3      224             0.0000000000
     18047       361  TIP3      OH2            24.3156095479       10.4133238201       69.3394098342  TIP3      225             0.0000000000
     18048       361  TIP3      H1             24.0467391147       10.0049604576       68.4897605947  TIP3      225             0.0000000000
     18049       361  TIP3      H2             24.4763997707        9.6122703272       69.8799406197  TIP3      225             0.0000000000
     18050       362  TIP3      OH2            25.9556608969       13.0266448344       72.4361276343  TIP3      226             0.0000000000
     18051       362  TIP3      H1             26.1303260674       12.8912086047       71.4926240357  TIP3      226             0.0000000000
     18052       362  TIP3      H2             26.6500588604       12.4975156085       72.8703955851  TIP3      226             0.0000000000
     18053       363  TIP3      OH2            24.7378068842        8.5795043010       73.3039623760  TIP3      227             0.0000000000
     18054       363  TIP3      H1             24.9596836121        8.6582743656       72.3504449148  TIP3      227             0.0000000000
     18055       363  TIP3      H2             25.2020731736        9.3448040553       73.7201599597  TIP3      227             0.0000000000
     18056       364  TIP3      OH2            31.5441198787       14.4416509030       74.0960468415  TIP3      228             0.0000000000
     18057       364  TIP3      H1             31.2308197053       15.1172061918       74.7273585370  TIP3      228             0.0000000000
     18058       364  TIP3      H2             31.2883956620       13.6146697292       74.5502017848  TIP3      228             0.0000000000
     18059       365  TIP3      OH2            25.8885771098       12.9175930404       77.8782545085  TIP3      229             0.0000000000
     18060       365  TIP3      H1             25.2401284331       13.5295729149       78.2921161677  TIP3      229             0.0000000000
     18061       365  TIP3      H2             25.4421567251       12.7653934136       77.0161712654  TIP3      229             0.0000000000
     18062       366  TIP3      OH2            23.0410424697        9.0658199357       76.9503107326  TIP3      230             0.0000000000
     18063       366  TIP3      H1             23.2317851253       10.0202932974       76.9720053154  TIP3      230             0.0000000000
     18064       366  TIP3      H2             22.5136550962        8.9588303141       77.7645445885  TIP3      230             0.0000000000
     18065       367  TIP3      OH2            29.6577730886       15.4999360070       68.4840664469  TIP3      231             0.0000000000
     18066       367  TIP3      H1             29.3051132713       15.8034329236       69.3294600002  TIP3      231             0.0000000000
     18067       367  TIP3      H2             29.3878651720       16.2317748968       67.9047948181  TIP3      231             0.0000000000
     18068       368  TIP3      OH2            24.1379392584       14.6981144281       78.8894050064  TIP3      232             0.0000000000
     18069       368  TIP3      H1             23.9575163500       15.1436224965       78.0330136371  TIP3      232             0.0000000000
     18070       368  TIP3      H2             23.2271090971       14.4250534047       79.1398604573  TIP3      232             0.0000000000
     18071       369  TIP3      OH2            35.7622907963        0.1108615828       65.5739338519  TIP3      233             0.0000000000
     18072       369  TIP3      H1             34.9684634183        0.3475491198       65.0788911438  TIP3      233             0.0000000000
     18073       369  TIP3      H2             36.3662680189        0.8282069607       65.2600523345  TIP3      233             0.0000000000
     18074       370  TIP3      OH2            23.3412385464        8.9031263859       67.0752973470  TIP3      234             0.0000000000
     18075       370  TIP3      H1             22.8654447810        9.2592001148       66.3039355536  TIP3      234             0.0000000000
     18076       370  TIP3      H2             23.1854880734        7.9613867637       66.9439499870  TIP3      234             0.0000000000
     18077       371  TIP3      OH2            19.7993592651       11.5053410904       76.2090342404  TIP3      235             0.0000000000
     18078       371  TIP3      H1             19.4794822744       11.7008571220       75.3224025020  TIP3      235             0.0000000000
     18079       371  TIP3      H2             20.1484982798       10.6025021630       76.1110050600  TIP3      235             0.0000000000
     18080       372  TIP3      OH2            19.4093136358       14.2175925015       72.9900460245  TIP3      236             0.0000000000
     18081       372  TIP3      H1             20.2367292287       14.6196894833       73.3176581301  TIP3      236             0.0000000000
     18082       372  TIP3      H2             18.7905836721       14.9393729036       73.2244328858  TIP3      236             0.0000000000
     18083       373  TIP3      OH2            37.5729786207       14.9129907259       78.8036504937  TIP3      237             0.0000000000
     18084       373  TIP3      H1             37.4443410194       13.9682014471       79.0250303436  TIP3      237             0.0000000000
     18085       373  TIP3      H2             36.6617371596       15.2437590104       78.9837720789  TIP3      237             0.0000000000
     18086       374  TIP3      OH2            28.4622654682       14.2991392714       77.7358594946  TIP3      238             0.0000000000
     18087       374  TIP3      H1             28.5442689374       15.1079018848       78.2866107343  TIP3      238             0.0000000000
     18088       374  TIP3      H2             27.5790466065       13.9409590882       77.9634688202  TIP3      238             0.0000000000
     18089       375  TIP3      OH2            29.0657518139       18.0474044264       67.0589307056  TIP3      239             0.0000000000
     18090       375  TIP3      H1             28.4377447174       18.3579228683       66.3951502251  TIP3      239             0.0000000000
     18091       375  TIP3      H2             29.2268481863       18.9013210986       67.5157378608  TIP3      239             0.0000000000
     18092       376  TIP3      OH2            22.6208781722       17.0054027748       69.5454465190  TIP3      240             0.0000000000
     18093       376  TIP3      H1             23.0396655877       16.6354273439       70.3581649034  TIP3      240             0.0000000000
     18094       376  TIP3      H2             21.9302326898       16.3335119401       69.3492358897  TIP3      240             0.0000000000
     18095       377  TIP3      OH2            31.8759073067       17.2345870181       66.9688345570  TIP3      241             0.0000000000
     18096       377  TIP3      H1             31.0800034372       17.6116336195       67.3810049773  TIP3      241             0.0000000000
     18097       377  TIP3      H2             31.8545200507       16.3011586591       67.2364238027  TIP3      241             0.0000000000
     18098       378  TIP3      OH2            34.5217100186        6.1430263758       79.1099678667  TIP3      242             0.0000000000
     18099       378  TIP3      H1             34.1768089701        6.6799330284       78.3732263350  TIP3      242             0.0000000000
     18100       378  TIP3      H2             34.4567167953        5.2512115471       78.7117500369  TIP3      242             0.0000000000
     18101       379  TIP3      OH2            22.1016321665       12.5445522161       77.1625693578  TIP3      243             0.0000000000
     18102       379  TIP3      H1             22.1125523706       12.2518091312       78.1087880066  TIP3      243             0.0000000000
     18103       379  TIP3      H2             21.1900348612       12.2898080480       76.9069323045  TIP3      243             0.0000000000
     18104       380  TIP3      OH2            24.8698652911        1.6142155622       73.0380243011  TIP3      244             0.0000000000
     18105       380  TIP3      H1             24.0785089177        1.7083506925       72.4555916493  TIP3      244             0.0000000000
     18106       380  TIP3      H2             24.5570247539        2.0856367205       73.8403796576  TIP3      244             0.0000000000
     18107       381  TIP3      OH2            28.9191197310        1.4483415078       77.2092882352  TIP3      245             0.0000000000
     18108       381  TIP3      H1             29.3931297238        0.6510095333       76.9498799232  TIP3      245             0.0000000000
     18109       381  TIP3      H2             28.1332841043        1.4116842354       76.6489059040  TIP3      245             0.0000000000
     18110       382  TIP3      OH2            31.8749387339        5.1073419484       77.5506846753  TIP3      246             0.0000000000
     18111       382  TIP3      H1             31.2307631990        4.8950711913       78.2725385288  TIP3      246             0.0000000000
     18112       382  TIP3      H2             32.1054195958        6.0429365601       77.7167469658  TIP3      246             0.0000000000
     18113       383  TIP3      OH2            24.9485241540        6.2010540268       74.4039921225  TIP3      247             0.0000000000
     18114       383  TIP3      H1             24.0412018835        6.0759599274       74.7478933925  TIP3      247             0.0000000000
     18115       383  TIP3      H2             24.8695318141        7.1065145222       74.0131401558  TIP3      247             0.0000000000
     18116       384  TIP3      OH2            24.5045859479        6.1988710445       68.9639992547  TIP3      248             0.0000000000
     18117       384  TIP3      H1             23.5707067845        6.0046707217       68.7730794438  TIP3      248             0.0000000000
     18118       384  TIP3      H2             24.9650589804        5.9336373495       68.1278384857  TIP3      248             0.0000000000
     18119       385  TIP3      OH2            30.0530425139        7.3002713309       68.3738397479  TIP3      249             0.0000000000
     18120       385  TIP3      H1             29.8094865207        8.1536353862       67.9581163973  TIP3      249             0.0000000000
     18121       385  TIP3      H2             30.6925746248        6.9972820970       67.6907138319  TIP3      249             0.0000000000
     18122       386  TIP3      OH2            29.4232752784        7.1651565022       79.3505333754  TIP3      250             0.0000000000
     18123       386  TIP3      H1             29.0045199050        6.3338000913       79.6642376765  TIP3      250             0.0000000000
     18124       386  TIP3      H2             30.2714399738        7.1216836851       79.8435949849  TIP3      250             0.0000000000
     18125       387  TIP3      OH2            31.3304603838        6.4887568569       71.0830542979  TIP3      251             0.0000000000
     18126       387  TIP3      H1             31.0858119206        7.4183012157       70.8999723713  TIP3      251             0.0000000000
     18127       387  TIP3      H2             31.1116783973        6.0654386115       70.2412393546  TIP3      251             0.0000000000
     18128       388  TIP3      OH2            22.2945339701        6.1039640834       75.5251833551  TIP3      252             0.0000000000
     18129       388  TIP3      H1             22.6027965734        6.5927323590       76.3060050452  TIP3      252             0.0000000000
     18130       388  TIP3      H2             21.8204399021        5.3435935824       75.9047239223  TIP3      252             0.0000000000
     18131       389  TIP3      OH2            19.3694293524        3.3552067941       70.2040676154  TIP3      253             0.0000000000
     18132       389  TIP3      H1             20.0539499914        3.6141751784       70.8549803116  TIP3      253             0.0000000000
     18133       389  TIP3      H2             19.8402893881        3.2894904515       69.3568320076  TIP3      253             0.0000000000
     18134       390  TIP3      OH2            20.6026978230        4.6691369091       65.9408205066  TIP3      254             0.0000000000
     18135       390  TIP3      H1             20.7920925472        5.1275509813       65.1038909693  TIP3      254             0.0000000000
     18136       390  TIP3      H2             20.5629196231        5.4212759828       66.5601536230  TIP3      254             0.0000000000
     18137       391  TIP3      OH2            30.4090519543        8.0320812013       75.1748467630  TIP3      255             0.0000000000
     18138       391  TIP3      H1             31.0041265833        7.3539270746       74.7628976335  TIP3      255             0.0000000000
     18139       391  TIP3      H2             29.7982024795        7.4708243792       75.7013885525  TIP3      255             0.0000000000
     18140       392  TIP3      OH2            27.4904325053        3.9189427372       70.1819477502  TIP3      256             0.0000000000
     18141       392  TIP3      H1             26.5623620231        3.9442767901       70.4900806202  TIP3      256             0.0000000000
     18142       392  TIP3      H2             27.9825792457        3.7577907337       71.0000182865  TIP3      256             0.0000000000
     18143       393  TIP3      OH2            21.7418405764        5.1271028123       69.4323768976  TIP3      257             0.0000000000
     18144       393  TIP3      H1             21.1765517480        5.5663953054       68.7536916055  TIP3      257             0.0000000000
     18145       393  TIP3      H2             22.0399629263        4.3016075236       68.9849655109  TIP3      257             0.0000000000
     18146       394  TIP3      OH2            25.5591129691        5.4997032861       66.5623599714  TIP3      258             0.0000000000
     18147       394  TIP3      H1             26.4869038110        5.4700376365       66.2542959677  TIP3      258             0.0000000000
     18148       394  TIP3      H2             25.1467541512        6.0116167873       65.8229504486  TIP3      258             0.0000000000
     18149       395  TIP3      OH2            31.8850379705        3.0390445991       73.6336276538  TIP3      259             0.0000000000
     18150       395  TIP3      H1             31.1004107553        3.3168209207       74.1315105891  TIP3      259             0.0000000000
     18151       395  TIP3      H2             31.5134402336        2.7875767017       72.7757686790  TIP3      259             0.0000000000
     18152       396  TIP3      OH2            24.6656420576        6.9116492492       64.4791952935  TIP3      260             0.0000000000
     18153       396  TIP3      H1             23.9448762720        7.1959071490       63.8908586046  TIP3      260             0.0000000000
     18154       396  TIP3      H2             25.4646274874        7.1095410825       63.9430185991  TIP3      260             0.0000000000
     18155       397  TIP3      OH2            34.5633969618       18.8407492374       79.8633778922  TIP3      261             0.0000000000
     18156       397  TIP3      H1             34.9654204668       18.8066603325       78.9746449335  TIP3      261             0.0000000000
     18157       397  TIP3      H2             34.9937534889       19.6421411195       80.2066917344  TIP3      261             0.0000000000
     18158       398  TIP3      OH2            22.1620499642       11.2544528841       79.5803740331  TIP3      262             0.0000000000
     18159       398  TIP3      H1             22.8676447043       11.0955843701       80.2370975081  TIP3      262             0.0000000000
     18160       398  TIP3      H2             21.3616943863       11.0966823845       80.1310431855  TIP3      262             0.0000000000
     18161       399  TIP3      OH2            27.8688297517        6.8781420840       71.8864697144  TIP3      263             0.0000000000
     18162       399  TIP3      H1             28.6288357093        6.2701611936       71.8602063087  TIP3      263             0.0000000000
     18163       399  TIP3      H2             27.3413123919        6.4565290449       72.5896424962  TIP3      263             0.0000000000
     18164       400  TIP3      OH2            22.9936190395        2.9217523571       68.6429730607  TIP3      264             0.0000000000
     18165       400  TIP3      H1             22.6318284594        2.0677513417       68.9701578292  TIP3      264             0.0000000000
     18166       400  TIP3      H2             23.5521672805        2.6368524966       67.8821713538  TIP3      264             0.0000000000
     18167       401  TIP3      OH2            27.3505893827        4.9906687551       74.1396616461  TIP3      265             0.0000000000
     18168       401  TIP3      H1             26.5389133048        5.5341589164       74.2509565951  TIP3      265             0.0000000000
     18169       401  TIP3      H2             27.9630026530        5.4438913670       74.7457809131  TIP3      265             0.0000000000
     18170       402  TIP3      OH2            35.2933836423       10.9470813770       74.9375476007  TIP3      266             0.0000000000
     18171       402  TIP3      H1             35.7077002346       11.4452623877       74.1901822408  TIP3      266             0.0000000000
     18172       402  TIP3      H2             34.4114959028       10.7893362966       74.5660149730  TIP3      266             0.0000000000
     18173       403  TIP3      OH2            29.0031080691       11.5921802315       77.4842300601  TIP3      267             0.0000000000
     18174       403  TIP3      H1             28.6201495438       11.2120367810       78.2901348568  TIP3      267             0.0000000000
     18175       403  TIP3      H2             28.9422774136       12.5473612111       77.6612925461  TIP3      267             0.0000000000
     18176       404  TIP3      OH2            31.8716375287        6.7894351144       66.4950094968  TIP3      268             0.0000000000
     18177       404  TIP3      H1             32.5530865434        6.1487686678       66.7961887323  TIP3      268             0.0000000000
     18178       404  TIP3      H2             32.3398265013        7.6206355772       66.7373147804  TIP3      268             0.0000000000
     18179       405  TIP3      OH2            22.4449305929       10.6932451552       71.5446918300  TIP3      269             0.0000000000
     18180       405  TIP3      H1             22.7988153463       10.8059032962       70.6392884543  TIP3      269             0.0000000000
     18181       405  TIP3      H2             23.1565524871       10.2119717658       71.9919165787  TIP3      269             0.0000000000
     18182       406  TIP3      OH2            29.1964980333       12.8083593215       66.1457447145  TIP3      270             0.0000000000
     18183       406  TIP3      H1             29.1670424796       13.7334531650       65.8317109052  TIP3      270             0.0000000000
     18184       406  TIP3      H2             28.8146235171       12.8873956305       67.0310676285  TIP3      270             0.0000000000
     18185       407  TIP3      OH2            19.6151412356        8.8270693354       77.4383037643  TIP3      271             0.0000000000
     18186       407  TIP3      H1             19.9532695996        8.2527474019       78.1476702636  TIP3      271             0.0000000000
     18187       407  TIP3      H2             19.1939018287        8.1837991701       76.8500695457  TIP3      271             0.0000000000
     18188       408  TIP3      OH2            27.1714371620        8.5632700351       78.9390738138  TIP3      272             0.0000000000
     18189       408  TIP3      H1             26.5819371431        8.0360707963       78.3714553052  TIP3      272             0.0000000000
     18190       408  TIP3      H2             27.9916247600        8.0257785265       78.9358488122  TIP3      272             0.0000000000
     18191       409  TIP3      OH2            31.7932714038       13.7747680543       77.7148430435  TIP3      273             0.0000000000
     18192       409  TIP3      H1             31.0787955362       14.0327391247       77.1118858435  TIP3      273             0.0000000000
     18193       409  TIP3      H2             31.4627439032       14.1760559274       78.5472279419  TIP3      273             0.0000000000
     18194       410  TIP3      OH2            36.9128100066        6.3072390381       65.9408941230  TIP3      274             0.0000000000
     18195       410  TIP3      H1             36.9948812070        5.4477292028       65.5013046170  TIP3      274             0.0000000000
     18196       410  TIP3      H2             37.0721014076        6.9216592965       65.2121350125  TIP3      274             0.0000000000
     18197       411  TIP3      OH2            37.5154069379       12.1428915670       78.4827859306  TIP3      275             0.0000000000
     18198       411  TIP3      H1             36.5870400379       12.1429443810       78.1543875669  TIP3      275             0.0000000000
     18199       411  TIP3      H2             37.9993755913       11.9799381558       77.6482365082  TIP3      275             0.0000000000
     18200       412  TIP3      OH2            32.7930162552        9.7527726104       73.2104018778  TIP3      276             0.0000000000
     18201       412  TIP3      H1             31.8640870447        9.5286519059       73.0046597075  TIP3      276             0.0000000000
     18202       412  TIP3      H2             33.2461886218        9.0294976839       72.7357927226  TIP3      276             0.0000000000
     18203       413  TIP3      OH2            25.0098581931       14.2280130896       69.2829532118  TIP3      277             0.0000000000
     18204       413  TIP3      H1             25.2941240624       15.1436415541       69.1129441671  TIP3      277             0.0000000000
     18205       413  TIP3      H2             24.0946777373       14.2491649955       68.9957695897  TIP3      277             0.0000000000
     18206       414  TIP3      OH2            26.5448096203       11.9751190836       68.9965686606  TIP3      278             0.0000000000
     18207       414  TIP3      H1             25.9799556318       12.7760105031       69.0172195172  TIP3      278             0.0000000000
     18208       414  TIP3      H2             25.9264470552       11.2719524342       69.2743600261  TIP3      278             0.0000000000
     18209       415  TIP3      OH2            27.0345947875       15.7052880182       75.8257641864  TIP3      279             0.0000000000
     18210       415  TIP3      H1             27.7134031021       16.1426746531       75.3007733965  TIP3      279             0.0000000000
     18211       415  TIP3      H2             27.5985501744       15.3318436976       76.5343405955  TIP3      279             0.0000000000
     18212       416  TIP3      OH2            25.0258766699       16.8583957413       68.1643701175  TIP3      280             0.0000000000
     18213       416  TIP3      H1             24.1597716989       17.0364608248       68.5781364542  TIP3      280             0.0000000000
     18214       416  TIP3      H2             25.5186965393       17.5953530158       68.5892700169  TIP3      280             0.0000000000
     18215       417  TIP3      OH2            30.2699549759       11.8059291282       74.9573668419  TIP3      281             0.0000000000
     18216       417  TIP3      H1             29.9868720435       11.5651625221       75.8724947761  TIP3      281             0.0000000000
     18217       417  TIP3      H2             30.8454586393       11.0589174916       74.7109759924  TIP3      281             0.0000000000
     18218       418  TIP3      OH2            33.3845382621       16.3169314856       77.4113302135  TIP3      282             0.0000000000
     18219       418  TIP3      H1             32.5456062207       15.8315937690       77.2647159530  TIP3      282             0.0000000000
     18220       418  TIP3      H2             33.4336744627       16.8874180618       76.6165577283  TIP3      282             0.0000000000
     18221       419  TIP3      OH2            21.2263145443        3.3597186019       76.5405824042  TIP3      283             0.0000000000
     18222       419  TIP3      H1             20.9325776127        3.9614174932       77.2537095324  TIP3      283             0.0000000000
     18223       419  TIP3      H2             21.2286582885        2.5049634967       76.9868210932  TIP3      283             0.0000000000
     18224       420  TIP3      OH2            33.7966474676       11.4014743113       66.8230965436  TIP3      284             0.0000000000
     18225       420  TIP3      H1             33.6472052305       10.4410051257       66.9162721101  TIP3      284             0.0000000000
     18226       420  TIP3      H2             34.7417631113       11.4151141333       66.5838869064  TIP3      284             0.0000000000
     18227       421  TIP3      OH2            21.0893067087       15.2558235704       75.1522366125  TIP3      285             0.0000000000
     18228       421  TIP3      H1             21.7841692166       14.5879756456       75.2912693580  TIP3      285             0.0000000000
     18229       421  TIP3      H2             21.0808483494       15.6947703611       76.0106717157  TIP3      285             0.0000000000
     18230       422  TIP3      OH2            30.2611593593        3.4244320271       76.0259805424  TIP3      286             0.0000000000
     18231       422  TIP3      H1             30.9891044472        3.5966906511       76.6517294174  TIP3      286             0.0000000000
     18232       422  TIP3      H2             29.7816036183        2.7327719750       76.5298220181  TIP3      286             0.0000000000
     18233       423  TIP3      OH2            30.8353780929        3.1726628454       67.0983589392  TIP3      287             0.0000000000
     18234       423  TIP3      H1             30.6728012671        4.0966899339       66.8580028231  TIP3      287             0.0000000000
     18235       423  TIP3      H2             31.5286838271        3.2615464724       67.7963018674  TIP3      287             0.0000000000
     18236       424  TIP3      OH2            28.6377321803       15.4323732521       65.3878570609  TIP3      288             0.0000000000
     18237       424  TIP3      H1             27.6904583720       15.5968575639       65.6086295779  TIP3      288             0.0000000000
     18238       424  TIP3      H2             28.9728542585       16.3341795141       65.4686355532  TIP3      288             0.0000000000
     18239       425  TIP3      OH2            28.4771528723        5.0853271842       67.5871304972  TIP3      289             0.0000000000
     18240       425  TIP3      H1             28.7534359406        5.9695610215       67.8859297279  TIP3      289             0.0000000000
     18241       425  TIP3      H2             27.9913190506        4.7436082001       68.3614030435  TIP3      289             0.0000000000
     18242       426  TIP3      OH2            29.1732701386        6.1155341067       76.6709577630  TIP3      290             0.0000000000
     18243       426  TIP3      H1             29.3072665602        6.3692133975       77.6058065793  TIP3      290             0.0000000000
     18244       426  TIP3      H2             29.6373425145        5.2530794935       76.5949615711  TIP3      290             0.0000000000
     18245       427  TIP3      OH2            29.0906468969        1.8672386202       68.7979107082  TIP3      291             0.0000000000
     18246       427  TIP3      H1             28.5594071069        2.4944429539       69.3171748247  TIP3      291             0.0000000000
     18247       427  TIP3      H2             29.6331642831        2.4783495670       68.2487344122  TIP3      291             0.0000000000
     18248       428  TIP3      OH2            26.1125095493       16.2215798092       65.6568869685  TIP3      292             0.0000000000
     18249       428  TIP3      H1             26.2855118781       17.0976420568       65.2451696982  TIP3      292             0.0000000000
     18250       428  TIP3      H2             25.6042304485       16.4619046846       66.4681381712  TIP3      292             0.0000000000
     18251       429  TIP3      OH2            24.5747511573        2.8825676467       66.4719783696  TIP3      293             0.0000000000
     18252       429  TIP3      H1             24.6590748353        3.8468127631       66.3360974313  TIP3      293             0.0000000000
     18253       429  TIP3      H2             25.5311661394        2.6390858655       66.4660644581  TIP3      293             0.0000000000
     18254       430  TIP3      OH2            34.3660878817        3.9716683806       77.4127484303  TIP3      294             0.0000000000
     18255       430  TIP3      H1             33.4376629394        4.2877399227       77.4541064537  TIP3      294             0.0000000000
     18256       430  TIP3      H2             34.3946452074        3.6362381993       76.4827150134  TIP3      294             0.0000000000
     18257       431  TIP3      OH2            33.8316184103        7.5261984130       71.6769340646  TIP3      295             0.0000000000
     18258       431  TIP3      H1             33.0504489759        6.9351614690       71.6511299155  TIP3      295             0.0000000000
     18259       431  TIP3      H2             34.4884083531        6.9969981646       72.1888772559  TIP3      295             0.0000000000
     18260       432  TIP3      OH2            34.4153803288       16.6772003354       73.3876765837  TIP3      296             0.0000000000
     18261       432  TIP3      H1             34.5467717374       17.1342426403       72.5321283445  TIP3      296             0.0000000000
     18262       432  TIP3      H2             35.3490253532       16.5166438132       73.6347913354  TIP3      296             0.0000000000
     18263       433  TIP3      OH2            22.4296383149        1.2226818772       71.9741825765  TIP3      297             0.0000000000
     18264       433  TIP3      H1             22.5163024077        0.8587506333       71.0674057680  TIP3      297             0.0000000000
     18265       433  TIP3      H2             22.0575435355        0.4370877042       72.4418147521  TIP3      297             0.0000000000
     18266       434  TIP3      OH2            20.8578126129       15.2999542969       68.4078734392  TIP3      298             0.0000000000
     18267       434  TIP3      H1             19.9526519397       15.6352396189       68.4294416139  TIP3      298             0.0000000000
     18268       434  TIP3      H2             21.1111469934       15.5093945038       67.4982512251  TIP3      298             0.0000000000
     18269       435  TIP3      OH2            20.0974220157       17.5428206820       79.7978667549  TIP3      299             0.0000000000
     18270       435  TIP3      H1             20.7118502535       17.4928177156       80.5681299480  TIP3      299             0.0000000000
     18271       435  TIP3      H2             19.7998877623       16.6220246977       79.7639670636  TIP3      299             0.0000000000
     18272       436  TIP3      OH2            25.2920362492       16.1337646715       81.3541912753  TIP3      300             0.0000000000
     18273       436  TIP3      H1             26.1298553489       15.6491159083       81.4288223264  TIP3      300             0.0000000000
     18274       436  TIP3      H2             24.8586283727       15.6259128223       80.6517300912  TIP3      300             0.0000000000
     18275       437  TIP3      OH2            31.1331856464       15.1421490676       80.0430836326  TIP3      301             0.0000000000
     18276       437  TIP3      H1             31.0968076436       14.2961437898       80.5503001178  TIP3      301             0.0000000000
     18277       437  TIP3      H2             32.0423268691       15.4190864425       80.2820151955  TIP3      301             0.0000000000
     18278       438  TIP3      OH2            19.7952334066       11.0510270067       80.8341538034  TIP3      302             0.0000000000
     18279       438  TIP3      H1             19.0676020350       10.5080013342       81.1757528810  TIP3      302             0.0000000000
     18280       438  TIP3      H2             19.4001407702       11.3634837753       79.9895339620  TIP3      302             0.0000000000
     18281       439  TIP3      OH2            26.8075318474       11.1046874385       79.6673721233  TIP3      303             0.0000000000
     18282       439  TIP3      H1             26.5265838498       11.7141803827       78.9442623822  TIP3      303             0.0000000000
     18283       439  TIP3      H2             26.8979053227       10.2204235792       79.2095858472  TIP3      303             0.0000000000
     18284       440  TIP3      OH2            32.4337366013       11.0799554594       77.5457975071  TIP3      304             0.0000000000
     18285       440  TIP3      H1             33.3133658775       11.5297250188       77.5139294692  TIP3      304             0.0000000000
     18286       440  TIP3      H2             31.9135123472       11.8837554887       77.7564637008  TIP3      304             0.0000000000
     18287       441  TIP3      OH2            21.6000127061        8.1466891611       80.0531641902  TIP3      305             0.0000000000
     18288       441  TIP3      H1             21.8101211147        7.3183232794       80.5194986163  TIP3      305             0.0000000000
     18289       441  TIP3      H2             21.7646938463        8.7959295611       80.7704429819  TIP3      305             0.0000000000
     18290       442  TIP3      OH2            25.2383687111        7.4238030534       77.2518523991  TIP3      306             0.0000000000
     18291       442  TIP3      H1             24.4169136145        7.9539507136       77.3055212721  TIP3      306             0.0000000000
     18292       442  TIP3      H2             25.6968472279        7.8834293199       76.5140963562  TIP3      306             0.0000000000
     18293       443  TIP3      OH2            27.2169091859        6.7200569866       63.3792587561  TIP3      307             0.0000000000
     18294       443  TIP3      H1             26.9696524948        7.2907778174       62.6131823599  TIP3      307             0.0000000000
     18295       443  TIP3      H2             27.1482958709        5.8178577546       62.9669725023  TIP3      307             0.0000000000
     18296       444  TIP3      OH2            30.4346444737       10.2432537988       80.7524546240  TIP3      308             0.0000000000
     18297       444  TIP3      H1             30.7879884692        9.7503468569       79.9969517394  TIP3      308             0.0000000000
     18298       444  TIP3      H2             30.0109507499        9.5707126877       81.3088048577  TIP3      308             0.0000000000
     18299       445  TIP3      OH2            36.0141967881       10.0127476543       62.3873686633  TIP3      309             0.0000000000
     18300       445  TIP3      H1             35.1819600746        9.9215905580       61.8789507658  TIP3      309             0.0000000000
     18301       445  TIP3      H2             35.7197285235       10.6953143701       62.9966842112  TIP3      309             0.0000000000
     18302       446  TIP3      OH2            26.0198206958        5.1063266807       78.0236486180  TIP3      310             0.0000000000
     18303       446  TIP3      H1             26.1389843712        4.5278776918       77.2404840500  TIP3      310             0.0000000000
     18304       446  TIP3      H2             25.7779381175        5.9598092101       77.5937701042  TIP3      310             0.0000000000
     18305       447  TIP3      OH2            26.1526125536        3.4203467671       76.0104704050  TIP3      311             0.0000000000
     18306       447  TIP3      H1             26.7819493928        3.8244782676       75.3701088456  TIP3      311             0.0000000000
     18307       447  TIP3      H2             25.3094218521        3.5481436766       75.5133416215  TIP3      311             0.0000000000
     18308       448  TIP3      OH2            27.0419037512        8.8571177893       75.8356406029  TIP3      312             0.0000000000
     18309       448  TIP3      H1             27.9349339429        9.2002288907       75.6886026728  TIP3      312             0.0000000000
     18310       448  TIP3      H2             26.4833147905        9.5604140724       75.4289694437  TIP3      312             0.0000000000
     18311       449  TIP3      OH2            31.3364687118        6.4969393501       81.0642530319  TIP3      313             0.0000000000
     18312       449  TIP3      H1             31.6042951729        5.5684747941       81.1024789988  TIP3      313             0.0000000000
     18313       449  TIP3      H2             32.1857523192        6.9507600527       80.9841240769  TIP3      313             0.0000000000
     18314       450  TIP3      OH2            33.1953709422        9.4388209825       79.6231528006  TIP3      314             0.0000000000
     18315       450  TIP3      H1             32.7875788338        9.9206252285       78.8758304942  TIP3      314             0.0000000000
     18316       450  TIP3      H2             34.1379850604        9.3919019649       79.3502470277  TIP3      314             0.0000000000
     18317       451  TIP3      OH2            24.2983801245        5.6770415090       80.1834893620  TIP3      315             0.0000000000
     18318       451  TIP3      H1             23.4794177631        5.2143140398       79.9113587611  TIP3      315             0.0000000000
     18319       451  TIP3      H2             24.9120413331        5.5424410484       79.4286208821  TIP3      315             0.0000000000
     18320       452  TIP3      OH2            26.3450981777        0.8492325981       76.2591209079  TIP3      316             0.0000000000
     18321       452  TIP3      H1             26.2735144713        1.8364093373       76.2444249245  TIP3      316             0.0000000000
     18322       452  TIP3      H2             25.5254887904        0.6166366234       75.8023730259  TIP3      316             0.0000000000
     18323       453  TIP3      OH2            27.6956425488        4.9904774851       80.0989989201  TIP3      317             0.0000000000
     18324       453  TIP3      H1             27.2123794200        4.3151149956       80.5973649953  TIP3      317             0.0000000000
     18325       453  TIP3      H2             27.1700551967        4.9699234926       79.2587987838  TIP3      317             0.0000000000
     18326       454  TIP3      OH2            30.1904357510        4.2512450616       79.3673484740  TIP3      318             0.0000000000
     18327       454  TIP3      H1             29.2414792440        4.2145557970       79.6025672405  TIP3      318             0.0000000000
     18328       454  TIP3      H2             30.6107117512        3.7210256262       80.0683662843  TIP3      318             0.0000000000
     18329       455  TIP3      OH2            32.2951557052        2.9252344558       80.9341866682  TIP3      319             0.0000000000
     18330       455  TIP3      H1             32.1787727219        1.9461607328       80.9039595959  TIP3      319             0.0000000000
     18331       455  TIP3      H2             32.0567446429        3.1127374342       81.8774265143  TIP3      319             0.0000000000
     18332       456  TIP3      OH2            22.0572995668        3.8702730206       80.4175176263  TIP3      320             0.0000000000
     18333       456  TIP3      H1             22.2078778464        3.2052356110       79.7328247975  TIP3      320             0.0000000000
     18334       456  TIP3      H2             21.9460676020        3.3106472606       81.2245329565  TIP3      320             0.0000000000
     18335       457  TIP3      OH2            26.7360619573        1.2570148245       79.2154333242  TIP3      321             0.0000000000
     18336       457  TIP3      H1             26.8739631562        0.3066565275       79.3986137373  TIP3      321             0.0000000000
     18337       457  TIP3      H2             26.9093761318        1.2556779636       78.2648351655  TIP3      321             0.0000000000
     18338       458  TIP3      OH2            27.3201716797        2.0720662103       81.7218888005  TIP3      322             0.0000000000
     18339       458  TIP3      H1             27.0744936896        1.6734704579       80.8646254928  TIP3      322             0.0000000000
     18340       458  TIP3      H2             26.6050049686        2.7281743135       81.8371083901  TIP3      322             0.0000000000
     18341       459  TIP3      OH2            26.8266521018       18.6044275836       64.4228155212  TIP3      323             0.0000000000
     18342       459  TIP3      H1             27.0812007678       19.3187494362       65.0471657826  TIP3      323             0.0000000000
     18343       459  TIP3      H2             26.5348496078       19.1845269180       63.6800119208  TIP3      323             0.0000000000
     18344       460  TIP3      OH2            20.3023564590       12.9455854084       63.9557287727  TIP3      324             0.0000000000
     18345       460  TIP3      H1             20.0338127399       12.7873286893       64.8929523380  TIP3      324             0.0000000000
     18346       460  TIP3      H2             20.8404160650       12.1560632996       63.8099324227  TIP3      324             0.0000000000
     18347       461  TIP3      OH2            18.6930838296       17.9523335911       69.0682845679  TIP3      325             0.0000000000
     18348       461  TIP3      H1             18.0847960530       17.4783395473       68.4649333098  TIP3      325             0.0000000000
     18349       461  TIP3      H2             18.9434892646       17.2353202195       69.6885448902  TIP3      325             0.0000000000
     18350       462  TIP3      OH2            19.6649368693       16.3588137418       70.9606965714  TIP3      326             0.0000000000
     18351       462  TIP3      H1             19.3612236243       15.4776573638       71.2536908785  TIP3      326             0.0000000000
     18352       462  TIP3      H2             20.3697765072       16.5818201188       71.6099023882  TIP3      326             0.0000000000
     18353       463  TIP3      OH2            37.1061882003       16.9439542393       73.4861378476  TIP3      327             0.0000000000
     18354       463  TIP3      H1             37.5177329460       17.0491612625       74.3592431367  TIP3      327             0.0000000000
     18355       463  TIP3      H2             36.8756956296       17.8589270563       73.2663341299  TIP3      327             0.0000000000
     18356       464  TIP3      OH2            37.1512344213       16.5236103796       76.6020255428  TIP3      328             0.0000000000
     18357       464  TIP3      H1             36.6758138235       15.8429195522       76.0856122279  TIP3      328             0.0000000000
     18358       464  TIP3      H2             37.2912652441       16.0410138446       77.4459333046  TIP3      328             0.0000000000
     18359       465  TIP3      OH2            35.7930689697       12.5195666768       81.3828688301  TIP3      329             0.0000000000
     18360       465  TIP3      H1             34.9376035488       12.6806088050       81.8435495748  TIP3      329             0.0000000000
     18361       465  TIP3      H2             36.2069395775       13.4017132080       81.5199026961  TIP3      329             0.0000000000
     18362       466  TIP3      OH2            36.5533579215       10.8466850450       66.6640767823  TIP3      330             0.0000000000
     18363       466  TIP3      H1             37.4866670735       11.1329287131       66.6447458165  TIP3      330             0.0000000000
     18364       466  TIP3      H2             36.5900072979       10.1608176563       67.3573838155  TIP3      330             0.0000000000
     18365       467  TIP3      OH2            37.2386792809        8.8383064473       68.6187203742  TIP3      331             0.0000000000
     18366       467  TIP3      H1             36.4538950775        8.3292624315       68.9265424945  TIP3      331             0.0000000000
     18367       467  TIP3      H2             37.6935473118        9.0626000945       69.4609117248  TIP3      331             0.0000000000
     18368       468  TIP3      OH2            36.8244629310       11.8165023809       72.9440122349  TIP3      332             0.0000000000
     18369       468  TIP3      H1             37.5855180105       11.2038429579       72.9313161996  TIP3      332             0.0000000000
     18370       468  TIP3      H2             37.2352284803       12.6775903118       72.7634956961  TIP3      332             0.0000000000
     18371       469  TIP3      OH2            35.3564585066       14.5331592168       75.7906360916  TIP3      333             0.0000000000
     18372       469  TIP3      H1             34.7532778071       15.0762783489       76.3246598197  TIP3      333             0.0000000000
     18373       469  TIP3      H2             34.8180604609       14.3151544311       74.9871536467  TIP3      333             0.0000000000
     18374       470  TIP3      OH2            35.0960894306        7.3538682399       69.3144769196  TIP3      334             0.0000000000
     18375       470  TIP3      H1             34.7291869047        6.4556888629       69.2954703398  TIP3      334             0.0000000000
     18376       470  TIP3      H2             34.7540898408        7.6678120180       70.1849546641  TIP3      334             0.0000000000
     18377       471  TIP3      OH2            19.7834290884        9.7788978044       73.1684287818  TIP3      335             0.0000000000
     18378       471  TIP3      H1             19.9150516486        9.4178272384       72.2685228374  TIP3      335             0.0000000000
     18379       471  TIP3      H2             20.7023374775        9.6280933329       73.5142842439  TIP3      335             0.0000000000
     18380       472  TIP3      OH2            36.0758160654        9.4314540655       78.8751469557  TIP3      336             0.0000000000
     18381       472  TIP3      H1             36.3730155597        8.4826047701       78.9169970721  TIP3      336             0.0000000000
     18382       472  TIP3      H2             36.8181751862        9.8411664981       78.4012027635  TIP3      336             0.0000000000
     18383       473  TIP3      OH2            37.0336254540        6.8779887753       79.1828819070  TIP3      337             0.0000000000
     18384       473  TIP3      H1             36.2814607067        6.2530643148       79.2621721501  TIP3      337             0.0000000000
     18385       473  TIP3      H2             37.8358348911        6.3129581095       79.3074961552  TIP3      337             0.0000000000
     18386       474  TIP3      OH2            34.0416285009        5.4553846783       67.4843229324  TIP3      338             0.0000000000
     18387       474  TIP3      H1             34.5785148422        4.6204777213       67.5624156743  TIP3      338             0.0000000000
     18388       474  TIP3      H2             34.7602059242        6.0950960602       67.3455743478  TIP3      338             0.0000000000
     18389       475  TIP3      OH2            35.5909146962        5.9427939439       72.9823941196  TIP3      339             0.0000000000
     18390       475  TIP3      H1             36.5727415716        5.9993975223       73.0878742004  TIP3      339             0.0000000000
     18391       475  TIP3      H2             35.3241788425        5.9461393179       73.9240088996  TIP3      339             0.0000000000
     18392       476  TIP3      OH2            35.3129038230        6.6244517644       75.5502481462  TIP3      340             0.0000000000
     18393       476  TIP3      H1             34.4072976260        6.9604749823       75.5934868467  TIP3      340             0.0000000000
     18394       476  TIP3      H2             35.8344694523        7.4434420682       75.3839661426  TIP3      340             0.0000000000
     18395       477  TIP3      OH2            20.1526761187        5.0193916612       78.8843600503  TIP3      341             0.0000000000
     18396       477  TIP3      H1             20.8325022776        4.9380377421       79.5850677020  TIP3      341             0.0000000000
     18397       477  TIP3      H2             19.5425443565        4.2838152634       79.1260733991  TIP3      341             0.0000000000
     18398       478  TIP3      OH2            37.9972901675        0.8069520998       80.8123513202  TIP3      342             0.0000000000
     18399       478  TIP3      H1             38.0671780055        0.2691546873       80.0183838598  TIP3      342             0.0000000000
     18400       478  TIP3      H2             37.6640927940        1.6542852319       80.4358843363  TIP3      342             0.0000000000
     18401       479  TIP3      OH2            35.4546618648        3.2279118264       67.4868556238  TIP3      343             0.0000000000
     18402       479  TIP3      H1             35.5694314618        2.6802582719       68.2979172188  TIP3      343             0.0000000000
     18403       479  TIP3      H2             34.7930243291        2.6860959982       67.0046790965  TIP3      343             0.0000000000
     18404       480  TIP3      OH2            20.8547606013        3.2028309290       72.6588506287  TIP3      344             0.0000000000
     18405       480  TIP3      H1             21.2735190635        2.3410482990       72.4365853457  TIP3      344             0.0000000000
     18406       480  TIP3      H2             21.6153765656        3.8005676720       72.6216512236  TIP3      344             0.0000000000
     18407       481  TIP3      OH2            19.1459686631        6.3574870248       73.2738178251  TIP3      345             0.0000000000
     18408       481  TIP3      H1             19.6737035415        5.8206060265       72.6615531338  TIP3      345             0.0000000000
     18409       481  TIP3      H2             19.8449995586        6.8473540125       73.7201427465  TIP3      345             0.0000000000
     18410       482  TIP3      OH2            37.1665638509        3.0988154197       79.5380440343  TIP3      346             0.0000000000
     18411       482  TIP3      H1             36.3836259093        3.4178634419       80.0570871453  TIP3      346             0.0000000000
     18412       482  TIP3      H2             36.7238190888        2.6140187324       78.8300151202  TIP3      346             0.0000000000
     18413       483  TIP3      OH2            37.2565966491        2.0672139591       64.4139444886  TIP3      347             0.0000000000
     18414       483  TIP3      H1             37.7389958783        1.7714009158       63.6027155238  TIP3      347             0.0000000000
     18415       483  TIP3      H2             37.7477328625        2.8783177893       64.6104338035  TIP3      347             0.0000000000
     18416       484  TIP3      OH2            19.3806002624        2.6229526704       67.4107654381  TIP3      348             0.0000000000
     18417       484  TIP3      H1             18.4187500958        2.5341462160       67.2547122083  TIP3      348             0.0000000000
     18418       484  TIP3      H2             19.6238720506        3.2862875057       66.7468423391  TIP3      348             0.0000000000
     18419       485  TIP3      OH2            33.9088150309       17.6493846337       69.1334023908  TIP3      349             0.0000000000
     18420       485  TIP3      H1             34.6212678586       17.4704573914       68.4954096686  TIP3      349             0.0000000000
     18421       485  TIP3      H2             34.3819607200       18.0563471809       69.8870633966  TIP3      349             0.0000000000
     18422       486  TIP3      OH2            18.6202532667        1.5086626428       75.7679334336  TIP3      350             0.0000000000
     18423       486  TIP3      H1             19.5885453706        1.5444325287       75.6700598864  TIP3      350             0.0000000000
     18424       486  TIP3      H2             18.3231086150        2.0880950370       75.0338347547  TIP3      350             0.0000000000
     18425       487  TIP3      OH2            21.5754072809       14.1307916915       79.6153866110  TIP3      351             0.0000000000
     18426       487  TIP3      H1             20.7905042109       14.5218305397       79.2115444918  TIP3      351             0.0000000000
     18427       487  TIP3      H2             21.1726695286       13.8246977412       80.4396859105  TIP3      351             0.0000000000
     18428       488  TIP3      OH2            24.3608435227       15.6348871556       76.3255981430  TIP3      352             0.0000000000
     18429       488  TIP3      H1             24.1956207969       16.5299566998       75.9497515335  TIP3      352             0.0000000000
     18430       488  TIP3      H2             25.3451949846       15.5909762503       76.2688041696  TIP3      352             0.0000000000
     18431       489  TIP3      OH2            28.5424815816       16.8290704718       78.7348329825  TIP3      353             0.0000000000
     18432       489  TIP3      H1             28.5571099221       16.7898036323       79.7131673034  TIP3      353             0.0000000000
     18433       489  TIP3      H2             29.4450962438       17.1637321635       78.5393256057  TIP3      353             0.0000000000
     18434       490  TIP3      OH2            30.7779138586       18.4729380830       78.4758766633  TIP3      354             0.0000000000
     18435       490  TIP3      H1             31.6354438865       18.0858045092       78.2552833282  TIP3      354             0.0000000000
     18436       490  TIP3      H2             31.0166333901       19.0371499618       79.2401975335  TIP3      354             0.0000000000
     18437       491  TIP3      OH2            35.6811627798        0.4743877901       77.4928895184  TIP3      355             0.0000000000
     18438       491  TIP3      H1             35.2390955059        1.2577806578       77.1270959552  TIP3      355             0.0000000000
     18439       491  TIP3      H2             36.0649816317        0.0878852328       76.6885964801  TIP3      355             0.0000000000
     18440       492  TIP3      OH2            21.7541995524       18.8333781592       76.0178169711  TIP3      356             0.0000000000
     18441       492  TIP3      H1             21.0075804753       19.4076935960       75.7399308511  TIP3      356             0.0000000000
     18442       492  TIP3      H2             21.6939218880       18.9725805006       76.9739922284  TIP3      356             0.0000000000
     18443       493  TIP3      OH2            23.9493843669       17.9667832175       74.9493004920  TIP3      357             0.0000000000
     18444       493  TIP3      H1             23.0208191026       18.2514136281       75.1534376653  TIP3      357             0.0000000000
     18445       493  TIP3      H2             24.2373212047       18.6738389467       74.3496536866  TIP3      357             0.0000000000
     18446       494  TIP3      OH2            29.0911114558       17.7933878809       74.1710442167  TIP3      358             0.0000000000
     18447       494  TIP3      H1             28.4894502193       18.1912258005       73.5238702765  TIP3      358             0.0000000000
     18448       494  TIP3      H2             29.1314012657       18.4771724385       74.8729004446  TIP3      358             0.0000000000
     18449       495  TIP3      OH2            31.0623094953       16.6088639446       75.6755907705  TIP3      359             0.0000000000
     18450       495  TIP3      H1             30.3513092296       16.9800951411       75.1052358470  TIP3      359             0.0000000000
     18451       495  TIP3      H2             31.7480550958       17.2828912168       75.5188328348  TIP3      359             0.0000000000
     18452       496  TIP3      OH2            33.6245391040       18.3557018131       75.3644655537  TIP3      360             0.0000000000
     18453       496  TIP3      H1             33.8055956981       19.2762420292       75.0628006134  TIP3      360             0.0000000000
     18454       496  TIP3      H2             33.8709785073       17.8557244168       74.5510385646  TIP3      360             0.0000000000
     18455       497  TIP3      OH2            21.4141821855       16.9230690978       72.9659877517  TIP3      361             0.0000000000
     18456       497  TIP3      H1             21.2348424005       16.3620721431       73.7556420400  TIP3      361             0.0000000000
     18457       497  TIP3      H2             22.3223678523       16.6319183761       72.7153248943  TIP3      361             0.0000000000
     18458       498  TIP3      OH2            23.6835513503       16.0148630620       71.7842773995  TIP3      362             0.0000000000
     18459       498  TIP3      H1             23.5953054201       15.0734060431       72.0451508047  TIP3      362             0.0000000000
     18460       498  TIP3      H2             24.5003136141       16.2658178473       72.2675412343  TIP3      362             0.0000000000
     18461       499  TIP3      OH2            25.9125973927       16.0957112256       73.2369932866  TIP3      363             0.0000000000
     18462       499  TIP3      H1             26.2673723929       15.2241412280       72.9931308816  TIP3      363             0.0000000000
     18463       499  TIP3      H2             25.9859391329       16.0628368357       74.2100893027  TIP3      363             0.0000000000
     18464       500  TIP3      OH2            29.6447349033        2.2883821761       71.8609331736  TIP3      364             0.0000000000
     18465       500  TIP3      H1             28.8419571961        1.7291484947       71.8546677099  TIP3      364             0.0000000000
     18466       500  TIP3      H2             30.2251021659        1.7492434276       71.3046345711  TIP3      364             0.0000000000
     18467       501  TIP3      OH2            34.2781294644        1.3679973812       71.7730047738  TIP3      365             0.0000000000
     18468       501  TIP3      H1             34.8422085447        1.2879182684       70.9799894174  TIP3      365             0.0000000000
     18469       501  TIP3      H2             33.9844036209        0.4561927744       71.8939797576  TIP3      365             0.0000000000
     18470       502  TIP3      OH2            36.0597850226        1.6187852355       69.5748684319  TIP3      366             0.0000000000
     18471       502  TIP3      H1             36.5370408719        0.9577371011       69.0224189952  TIP3      366             0.0000000000
     18472       502  TIP3      H2             36.8166989966        2.2122361383       69.8200609857  TIP3      366             0.0000000000
     18473       503  TIP3      OH2            21.7975691401        0.6229266213       69.3779018958  TIP3      367             0.0000000000
     18474       503  TIP3      H1             21.0344104115        0.4337853736       68.8019847437  TIP3      367             0.0000000000
     18475       503  TIP3      H2             22.5353672499        0.2117079384       68.8510891350  TIP3      367             0.0000000000
     18476       504  TIP3      OH2            20.0300365143        0.8214837082       64.8113404422  TIP3      368             0.0000000000
     18477       504  TIP3      H1             20.7963468290        0.3172755103       64.4967469321  TIP3      368             0.0000000000
     18478       504  TIP3      H2             19.9281716401        0.5185155961       65.7196204802  TIP3      368             0.0000000000
     18479       505  TIP3      OH2            25.8214785767        0.4845083069       69.7915299563  TIP3      369             0.0000000000
     18480       505  TIP3      H1             26.2413724276        0.6521873061       68.9354571869  TIP3      369             0.0000000000
     18481       505  TIP3      H2             26.4715832728        0.9204375375       70.3794852480  TIP3      369             0.0000000000
     18482       506  TIP3      OH2            31.4710138376        0.5613592004       70.1515021799  TIP3      370             0.0000000000
     18483       506  TIP3      H1             30.7163954781        0.8054474685       69.5857407200  TIP3      370             0.0000000000
     18484       506  TIP3      H2             31.0522447675       -0.0696776637       70.7825275461  TIP3      370             0.0000000000
     18485       507  TIP3      OH2            33.3056538896        1.4843183521       66.6614995284  TIP3      371             0.0000000000
     18486       507  TIP3      H1             32.4038309371        1.6530034349       66.3461764706  TIP3      371             0.0000000000
     18487       507  TIP3      H2             33.1865866086        0.8209172543       67.3792319745  TIP3      371             0.0000000000
     18488       508  TIP3      OH2            20.1872423161       16.4306605901       65.8244327231  TIP3      372             0.0000000000
     18489       508  TIP3      H1             19.2278667137       16.3415040618       65.9030625876  TIP3      372             0.0000000000
     18490       508  TIP3      H2             20.2833117273       17.3933967867       65.6872287636  TIP3      372             0.0000000000
     18491       509  TIP3      OH2            27.3831584613        2.3091813958       66.2728507155  TIP3      373             0.0000000000
     18492       509  TIP3      H1             28.0926338262        2.7981642392       66.7012113168  TIP3      373             0.0000000000
     18493       509  TIP3      H2             27.2730852084        2.7888627361       65.4163754987  TIP3      373             0.0000000000
     18494       510  TIP3      OH2            35.9123911042       16.9608246855       67.1974781135  TIP3      374             0.0000000000
     18495       510  TIP3      H1             35.8609451239       16.0903022819       66.7866567936  TIP3      374             0.0000000000
     18496       510  TIP3      H2             36.8105431364       17.2435010135       66.9511115500  TIP3      374             0.0000000000
     18497       511  TIP3      OH2            21.5864712875        1.1654278307       78.8555107389  TIP3      375             0.0000000000
     18498       511  TIP3      H1             21.4564204163        0.1948759928       78.9140784612  TIP3      375             0.0000000000
     18499       511  TIP3      H2             22.2139948228        1.2590592635       79.5974960638  TIP3      375             0.0000000000
     18500       512  TIP3      OH2            23.7168528040        0.5369987211       80.6729221786  TIP3      376             0.0000000000
     18501       512  TIP3      H1             24.6817074282        0.4952742518       80.5593016559  TIP3      376             0.0000000000
     18502       512  TIP3      H2             23.4520270709       -0.3977902153       80.5662138587  TIP3      376             0.0000000000
     18503       513  TIP3      OH2            32.0502754222       66.2240830315       80.9188516033  TIP3      377             0.0000000000
     18504       513  TIP3      H1             31.3329821373       65.5837838802       81.0304612459  TIP3      377             0.0000000000
     18505       513  TIP3      H2             32.7270433070       65.6345976320       80.5324630169  TIP3      377             0.0000000000
     18506       514  TIP3      OH2            35.2467116526       16.0796816547       79.3049792412  TIP3      378             0.0000000000
     18507       514  TIP3      H1             34.4090076247       15.9698112436       78.8006530792  TIP3      378             0.0000000000
     18508       514  TIP3      H2             35.1667511361       17.0001104134       79.6081424162  TIP3      378             0.0000000000
     18509       515  TIP3      OH2            50.1843290547        9.7006670638       69.2338033185  TIP3      379             0.0000000000
     18510       515  TIP3      H1             49.8862632013       10.6332787938       69.2700308427  TIP3      379             0.0000000000
     18511       515  TIP3      H2             49.5086751429        9.3140822608       68.6562749605  TIP3      379             0.0000000000
     18512       516  TIP3      OH2            49.0608866906        8.6443936570       72.7756842790  TIP3      380             0.0000000000
     18513       516  TIP3      H1             49.1742348759        8.2641327582       73.6765543652  TIP3      380             0.0000000000
     18514       516  TIP3      H2             48.1035630257        8.6469823231       72.6820812991  TIP3      380             0.0000000000
     18515       517  TIP3      OH2            40.8022191790        8.6674380041       74.1966367173  TIP3      381             0.0000000000
     18516       517  TIP3      H1             40.6771363363        7.8941931100       74.7857570171  TIP3      381             0.0000000000
     18517       517  TIP3      H2             41.4670776002        9.1605083600       74.7038231754  TIP3      381             0.0000000000
     18518       518  TIP3      OH2            52.1491999924       12.0293710025       71.5588463729  TIP3      382             0.0000000000
     18519       518  TIP3      H1             52.1794552678       11.2802965077       72.1764133660  TIP3      382             0.0000000000
     18520       518  TIP3      H2             52.4295962215       12.7741276062       72.1230638187  TIP3      382             0.0000000000
     18521       519  TIP3      OH2            42.0650081063       13.5092209117       72.4121831071  TIP3      383             0.0000000000
     18522       519  TIP3      H1             41.6661981941       12.6239870257       72.2737608882  TIP3      383             0.0000000000
     18523       519  TIP3      H2             42.9981980898       13.2007098479       72.4095627185  TIP3      383             0.0000000000
     18524       520  TIP3      OH2            38.6148755095        6.4237587374       68.2049976766  TIP3      384             0.0000000000
     18525       520  TIP3      H1             38.3162431665        7.3288231412       68.4088829342  TIP3      384             0.0000000000
     18526       520  TIP3      H2             37.8761078439        6.1457911681       67.6418371030  TIP3      384             0.0000000000
     18527       521  TIP3      OH2            39.0425862260        9.0713488568       70.7320245045  TIP3      385             0.0000000000
     18528       521  TIP3      H1             39.3549726465        8.1374893625       70.7712609747  TIP3      385             0.0000000000
     18529       521  TIP3      H2             39.8196777648        9.5400247249       70.4032969297  TIP3      385             0.0000000000
     18530       522  TIP3      OH2            49.5015143408       17.3177527756       71.1510579028  TIP3      386             0.0000000000
     18531       522  TIP3      H1             50.0643172938       16.7121700483       70.6107413592  TIP3      386             0.0000000000
     18532       522  TIP3      H2             49.3948767673       16.7272575214       71.9076146432  TIP3      386             0.0000000000
     18533       523  TIP3      OH2            46.6765787944       11.3981590752       73.7928806427  TIP3      387             0.0000000000
     18534       523  TIP3      H1             47.0662655586       11.2352571125       72.9257724254  TIP3      387             0.0000000000
     18535       523  TIP3      H2             47.4693302400       11.6590429988       74.3177922762  TIP3      387             0.0000000000
     18536       524  TIP3      OH2            55.4412315604        2.7602726936       73.3383805320  TIP3      388             0.0000000000
     18537       524  TIP3      H1             55.9921868086        3.4456878479       73.7467057616  TIP3      388             0.0000000000
     18538       524  TIP3      H2             55.6869655057        2.8029723935       72.3984829277  TIP3      388             0.0000000000
     18539       525  TIP3      OH2            50.7703416191        6.0429895900       73.9660302550  TIP3      389             0.0000000000
     18540       525  TIP3      H1             51.0751938461        5.2492150884       74.4366180956  TIP3      389             0.0000000000
     18541       525  TIP3      H2             50.5640956246        5.6897892239       73.0842183761  TIP3      389             0.0000000000
     18542       526  TIP3      OH2            43.4213473082        3.9878736152       70.4988543522  TIP3      390             0.0000000000
     18543       526  TIP3      H1             43.5338026957        4.8065909111       69.9659365845  TIP3      390             0.0000000000
     18544       526  TIP3      H2             42.8225635019        3.4759500071       69.9075555818  TIP3      390             0.0000000000
     18545       527  TIP3      OH2            51.1163829289        3.7873990468       69.2807005193  TIP3      391             0.0000000000
     18546       527  TIP3      H1             51.6137176778        3.7761209510       70.1353985367  TIP3      391             0.0000000000
     18547       527  TIP3      H2             50.9940094494        4.7404792422       69.1523787895  TIP3      391             0.0000000000
     18548       528  TIP3      OH2            39.9384190181        6.6497436733       71.3334672567  TIP3      392             0.0000000000
     18549       528  TIP3      H1             40.5258641995        6.2905676489       72.0183317684  TIP3      392             0.0000000000
     18550       528  TIP3      H2             40.2577212144        6.1576364914       70.5360157937  TIP3      392             0.0000000000
     18551       529  TIP3      OH2            44.4713085765        8.1633034241       70.9900711188  TIP3      393             0.0000000000
     18552       529  TIP3      H1             45.3088268169        7.7287553080       71.2733613847  TIP3      393             0.0000000000
     18553       529  TIP3      H2             44.1522724403        7.4560995899       70.4049898126  TIP3      393             0.0000000000
     18554       530  TIP3      OH2            56.2491478551        4.6080940350       75.9725166917  TIP3      394             0.0000000000
     18555       530  TIP3      H1             55.5154708057        5.0450006936       75.4986651289  TIP3      394             0.0000000000
     18556       530  TIP3      H2             55.8888958350        4.5728525154       76.8704467607  TIP3      394             0.0000000000
     18557       531  TIP3      OH2            42.4573665231        3.0396950979       74.7408231676  TIP3      395             0.0000000000
     18558       531  TIP3      H1             42.2377213738        3.6770186941       74.0209080845  TIP3      395             0.0000000000
     18559       531  TIP3      H2             41.6994757626        3.1987538786       75.3461158045  TIP3      395             0.0000000000
     18560       532  TIP3      OH2            49.2071666313       12.1619787973       68.3875142089  TIP3      396             0.0000000000
     18561       532  TIP3      H1             49.0515621569       12.1539646612       67.4218331890  TIP3      396             0.0000000000
     18562       532  TIP3      H2             48.7440217929       13.0026747094       68.6064775296  TIP3      396             0.0000000000
     18563       533  TIP3      OH2            44.4808531434       10.5589370291       75.0244570905  TIP3      397             0.0000000000
     18564       533  TIP3      H1             43.8797928617       11.2716217394       75.3325545251  TIP3      397             0.0000000000
     18565       533  TIP3      H2             45.1702858257       11.0672648560       74.5374446110  TIP3      397             0.0000000000
     18566       534  TIP3      OH2            52.6657784470        4.0972277517       71.4550243181  TIP3      398             0.0000000000
     18567       534  TIP3      H1             52.9729357726        3.1821674999       71.6551115409  TIP3      398             0.0000000000
     18568       534  TIP3      H2             53.2669705665        4.5993590098       72.0392346982  TIP3      398             0.0000000000
     18569       535  TIP3      OH2            42.1072471234        4.9591798008       72.6394823229  TIP3      399             0.0000000000
     18570       535  TIP3      H1             42.6890155678        5.6243552921       73.0746623427  TIP3      399             0.0000000000
     18571       535  TIP3      H2             42.5898142087        4.8025449120       71.7922080981  TIP3      399             0.0000000000
     18572       536  TIP3      OH2            43.0432544858       12.5934597215       75.7181142449  TIP3      400             0.0000000000
     18573       536  TIP3      H1             42.8824683661       13.1670320142       74.9563498655  TIP3      400             0.0000000000
     18574       536  TIP3      H2             42.1663161756       12.6030497234       76.1618912272  TIP3      400             0.0000000000
     18575       537  TIP3      OH2            38.9958144065       12.1391353503       66.4235446360  TIP3      401             0.0000000000
     18576       537  TIP3      H1             38.6732072484       12.9204646228       65.9573256708  TIP3      401             0.0000000000
     18577       537  TIP3      H2             39.4162737289       12.5895032965       67.1791990897  TIP3      401             0.0000000000
     18578       538  TIP3      OH2            52.9042689020       13.8028639330       73.6646896694  TIP3      402             0.0000000000
     18579       538  TIP3      H1             51.9480656015       14.0381988306       73.7684291644  TIP3      402             0.0000000000
     18580       538  TIP3      H2             53.1717088897       14.5790303950       73.1366607037  TIP3      402             0.0000000000
     18581       539  TIP3      OH2            53.2070651224        2.7183883039       74.9984919808  TIP3      403             0.0000000000
     18582       539  TIP3      H1             52.3665131475        2.9215579205       74.5314311390  TIP3      403             0.0000000000
     18583       539  TIP3      H2             53.7853938295        2.4659560191       74.2473172388  TIP3      403             0.0000000000
     18584       540  TIP3      OH2            46.2744605991        1.0785116326       72.2420744298  TIP3      404             0.0000000000
     18585       540  TIP3      H1             46.3146805428        0.1171236210       72.1877868070  TIP3      404             0.0000000000
     18586       540  TIP3      H2             45.3481623986        1.2262470328       72.5431248586  TIP3      404             0.0000000000
     18587       541  TIP3      OH2            51.1651344608       15.5783643318       69.9542409122  TIP3      405             0.0000000000
     18588       541  TIP3      H1             51.4279864033       14.7882913555       69.4483534419  TIP3      405             0.0000000000
     18589       541  TIP3      H2             51.9071204183       16.2124437445       69.8005523139  TIP3      405             0.0000000000
     18590       542  TIP3      OH2            52.2684394379       13.3688674727       68.2684937447  TIP3      406             0.0000000000
     18591       542  TIP3      H1             52.0022300828       12.7836025653       67.5422125086  TIP3      406             0.0000000000
     18592       542  TIP3      H2             52.1401881596       12.7863019336       69.0441091327  TIP3      406             0.0000000000
     18593       543  TIP3      OH2            53.6780213295       12.1349598744       77.2253169357  TIP3      407             0.0000000000
     18594       543  TIP3      H1             53.9166729673       11.4978099957       76.5177939470  TIP3      407             0.0000000000
     18595       543  TIP3      H2             53.9181317618       12.9591487080       76.7439854708  TIP3      407             0.0000000000
     18596       544  TIP3      OH2            48.5068863350        8.9529050257       66.8322957837  TIP3      408             0.0000000000
     18597       544  TIP3      H1             47.9035475490        9.7310644795       66.8985639653  TIP3      408             0.0000000000
     18598       544  TIP3      H2             49.2947435813        9.3474117843       66.4161098774  TIP3      408             0.0000000000
     18599       545  TIP3      OH2            55.6717133273        8.5911965194       74.9793607131  TIP3      409             0.0000000000
     18600       545  TIP3      H1             55.0811051388        9.3409619118       75.2161412926  TIP3      409             0.0000000000
     18601       545  TIP3      H2             56.2673513150        9.0828766736       74.3732379331  TIP3      409             0.0000000000
     18602       546  TIP3      OH2            52.5915756714        9.4619500646       67.9982544894  TIP3      410             0.0000000000
     18603       546  TIP3      H1             51.7759963867        9.5592025188       68.5455625024  TIP3      410             0.0000000000
     18604       546  TIP3      H2             53.0543572055        8.7621357219       68.5197205313  TIP3      410             0.0000000000
     18605       547  TIP3      OH2            51.7091290966        8.0276389533       77.0610379970  TIP3      411             0.0000000000
     18606       547  TIP3      H1             51.7195870712        8.8817775927       77.5138854000  TIP3      411             0.0000000000
     18607       547  TIP3      H2             50.9046202967        8.1102286913       76.5198785075  TIP3      411             0.0000000000
     18608       548  TIP3      OH2            43.2143261757        9.8098909596       69.2034360038  TIP3      412             0.0000000000
     18609       548  TIP3      H1             43.5260330738        9.3266491656       68.4337138583  TIP3      412             0.0000000000
     18610       548  TIP3      H2             43.6761799131        9.3446498125       69.9284253265  TIP3      412             0.0000000000
     18611       549  TIP3      OH2            44.7163875032       12.8039525484       72.3169099384  TIP3      413             0.0000000000
     18612       549  TIP3      H1             44.9706028710       12.5745865041       71.4044406265  TIP3      413             0.0000000000
     18613       549  TIP3      H2             45.5099385896       12.5902373156       72.8413295865  TIP3      413             0.0000000000
     18614       550  TIP3      OH2            43.5912601215        8.6316037090       73.4600223295  TIP3      414             0.0000000000
     18615       550  TIP3      H1             43.9236001733        8.6480030527       72.5382215658  TIP3      414             0.0000000000
     18616       550  TIP3      H2             44.1132924931        9.3361456405       73.8934556010  TIP3      414             0.0000000000
     18617       551  TIP3      OH2            50.3066467905       14.4571932782       74.0876999860  TIP3      415             0.0000000000
     18618       551  TIP3      H1             50.0773787528       15.0505715396       74.8310914212  TIP3      415             0.0000000000
     18619       551  TIP3      H2             50.0484635725       13.5827653129       74.4380760205  TIP3      415             0.0000000000
     18620       552  TIP3      OH2            44.6611898095       12.8742660830       77.8336325543  TIP3      416             0.0000000000
     18621       552  TIP3      H1             43.9554551656       13.2953411197       78.3637064401  TIP3      416             0.0000000000
     18622       552  TIP3      H2             44.1716744400       12.6747648992       76.9941809338  TIP3      416             0.0000000000
     18623       553  TIP3      OH2            51.0055143194        8.6679499412       65.7960159544  TIP3      417             0.0000000000
     18624       553  TIP3      H1             51.6014772229        8.9183079056       66.5359976307  TIP3      417             0.0000000000
     18625       553  TIP3      H2             51.2516728371        9.3054236113       65.1078865841  TIP3      417             0.0000000000
     18626       554  TIP3      OH2            41.7453877616        9.4882628381       76.5683134648  TIP3      418             0.0000000000
     18627       554  TIP3      H1             42.1582170723       10.2605108875       76.9741704057  TIP3      418             0.0000000000
     18628       554  TIP3      H2             41.0690776404        9.2523935614       77.2247610701  TIP3      418             0.0000000000
     18629       555  TIP3      OH2            48.0624064734       14.7012035935       68.4457639635  TIP3      419             0.0000000000
     18630       555  TIP3      H1             48.5618480318       15.2288623158       69.0831492489  TIP3      419             0.0000000000
     18631       555  TIP3      H2             47.5883447426       15.3888499630       67.9590867464  TIP3      419             0.0000000000
     18632       556  TIP3      OH2            42.8997042937       14.8979667552       78.8739325362  TIP3      420             0.0000000000
     18633       556  TIP3      H1             43.0077112971       14.9410257336       77.8921934862  TIP3      420             0.0000000000
     18634       556  TIP3      H2             41.9857364304       14.5434914150       78.9661856252  TIP3      420             0.0000000000
     18635       557  TIP3      OH2            54.2212298740        0.8045501912       65.0341004228  TIP3      421             0.0000000000
     18636       557  TIP3      H1             53.2769068785        0.8770996278       65.2423410893  TIP3      421             0.0000000000
     18637       557  TIP3      H2             54.4765734513        1.7277941756       65.0892100441  TIP3      421             0.0000000000
     18638       558  TIP3      OH2            42.2596159849        8.9989162410       66.4238864963  TIP3      422             0.0000000000
     18639       558  TIP3      H1             41.8785902201        9.6212702538       67.0686376654  TIP3      422             0.0000000000
     18640       558  TIP3      H2             42.0999019634        8.1321633854       66.8264534397  TIP3      422             0.0000000000
     18641       559  TIP3      OH2            38.8071277332       11.3624867951       76.2735679798  TIP3      423             0.0000000000
     18642       559  TIP3      H1             38.2888835204       11.2958951989       75.4602719828  TIP3      423             0.0000000000
     18643       559  TIP3      H2             39.0924726503       10.4270529059       76.3306160764  TIP3      423             0.0000000000
     18644       560  TIP3      OH2            38.7076452741       14.1519003633       72.9580493828  TIP3      424             0.0000000000
     18645       560  TIP3      H1             39.5328234119       13.6905487546       72.7736552022  TIP3      424             0.0000000000
     18646       560  TIP3      H2             39.0266072457       14.9357445310       73.4193587516  TIP3      424             0.0000000000
     18647       561  TIP3      OH2            56.4732063290       14.8766496307       78.8160757577  TIP3      425             0.0000000000
     18648       561  TIP3      H1             56.3115668380       13.9157762603       78.9272487076  TIP3      425             0.0000000000
     18649       561  TIP3      H2             55.6399529081       15.2215514163       79.2200969358  TIP3      425             0.0000000000
     18650       562  TIP3      OH2            47.2084785643       14.1108259507       77.6170098901  TIP3      426             0.0000000000
     18651       562  TIP3      H1             47.2802082535       14.8756083430       78.2258398278  TIP3      426             0.0000000000
     18652       562  TIP3      H2             46.2944880131       13.7799406093       77.7617146938  TIP3      426             0.0000000000
     18653       563  TIP3      OH2            47.7392588944       17.8683319305       67.2910171192  TIP3      427             0.0000000000
     18654       563  TIP3      H1             47.5540756899       18.0189910075       66.3478559615  TIP3      427             0.0000000000
     18655       563  TIP3      H2             47.8678611684       18.7734941522       67.6355522214  TIP3      427             0.0000000000
     18656       564  TIP3      OH2            41.4099775009       16.8104012575       69.3104320104  TIP3      428             0.0000000000
     18657       564  TIP3      H1             41.7822681963       16.5149541932       70.1743583213  TIP3      428             0.0000000000
     18658       564  TIP3      H2             40.5043684625       16.4636435662       69.3427661407  TIP3      428             0.0000000000
     18659       565  TIP3      OH2            50.2814813133       17.2383316834       67.7070192175  TIP3      429             0.0000000000
     18660       565  TIP3      H1             49.3286700095       17.2303147227       67.4592231503  TIP3      429             0.0000000000
     18661       565  TIP3      H2             50.5037328839       16.3046174859       67.5848499524  TIP3      429             0.0000000000
     18662       566  TIP3      OH2            53.5631880095        5.9830355714       79.0415032909  TIP3      430             0.0000000000
     18663       566  TIP3      H1             53.0502590950        6.6096821870       78.5014661869  TIP3      430             0.0000000000
     18664       566  TIP3      H2             53.2693523639        5.1395342414       78.6378553292  TIP3      430             0.0000000000
     18665       567  TIP3      OH2            40.8779832146       12.7364523396       77.2640602087  TIP3      431             0.0000000000
     18666       567  TIP3      H1             40.9963386486       12.2146413163       78.0856213513  TIP3      431             0.0000000000
     18667       567  TIP3      H2             40.0593740382       12.3351726674       76.8984734111  TIP3      431             0.0000000000
     18668       568  TIP3      OH2            43.7307759140        1.4637949805       73.0785133573  TIP3      432             0.0000000000
     18669       568  TIP3      H1             43.0070409918        1.5583879414       72.4304778930  TIP3      432             0.0000000000
     18670       568  TIP3      H2             43.3408510255        1.9213519590       73.8570983517  TIP3      432             0.0000000000
     18671       569  TIP3      OH2            47.8551231386        0.9145425559       77.1907969932  TIP3      433             0.0000000000
     18672       569  TIP3      H1             48.3658615633        0.3718857809       76.5762117352  TIP3      433             0.0000000000
     18673       569  TIP3      H2             47.0678144062        1.1110582884       76.6353046248  TIP3      433             0.0000000000
     18674       570  TIP3      OH2            50.7610908014        5.1783703649       77.6590206655  TIP3      434             0.0000000000
     18675       570  TIP3      H1             50.1019333853        4.7767740634       78.2868955660  TIP3      434             0.0000000000
     18676       570  TIP3      H2             50.4130525017        6.0783545485       77.6158187844  TIP3      434             0.0000000000
     18677       571  TIP3      OH2            48.3884079060        3.4680032621       64.4426463588  TIP3      435             0.0000000000
     18678       571  TIP3      H1             48.4101559316        3.9475099807       65.2795317469  TIP3      435             0.0000000000
     18679       571  TIP3      H2             47.9353240676        4.0851201216       63.8651591996  TIP3      435             0.0000000000
     18680       572  TIP3      OH2            43.7484204277        6.1843509974       74.3978914372  TIP3      436             0.0000000000
     18681       572  TIP3      H1             43.0244752544        6.2652518730       75.0542031009  TIP3      436             0.0000000000
     18682       572  TIP3      H2             43.7045207773        7.0960536584       74.0170983952  TIP3      436             0.0000000000
     18683       573  TIP3      OH2            43.4361456010        6.1034939268       68.9303679204  TIP3      437             0.0000000000
     18684       573  TIP3      H1             42.4972930684        5.8552151362       68.7875741639  TIP3      437             0.0000000000
     18685       573  TIP3      H2             43.8533992639        5.8439732262       68.0704514307  TIP3      437             0.0000000000
     18686       574  TIP3      OH2            49.3565367792        6.8727486475       68.3274629333  TIP3      438             0.0000000000
     18687       574  TIP3      H1             48.9654047948        7.6225303856       67.8154578349  TIP3      438             0.0000000000
     18688       574  TIP3      H2             49.8571779193        6.4598087588       67.5987390834  TIP3      438             0.0000000000
     18689       575  TIP3      OH2            48.3434841591        7.1323314768       79.3383432049  TIP3      439             0.0000000000
     18690       575  TIP3      H1             47.8649164294        6.2942630458       79.5524243138  TIP3      439             0.0000000000
     18691       575  TIP3      H2             49.1012954395        7.0999979180       79.9572346713  TIP3      439             0.0000000000
     18692       576  TIP3      OH2            49.8134977933        6.5434433612       71.2022579394  TIP3      440             0.0000000000
     18693       576  TIP3      H1             49.7538732704        7.4514963644       71.5644055376  TIP3      440             0.0000000000
     18694       576  TIP3      H2             49.6596240179        6.7276659140       70.2515750562  TIP3      440             0.0000000000
     18695       577  TIP3      OH2            41.0518400352        6.1557232298       75.5703650912  TIP3      441             0.0000000000
     18696       577  TIP3      H1             41.5230351031        6.5459938778       76.3308483046  TIP3      441             0.0000000000
     18697       577  TIP3      H2             40.6378586438        5.3511836362       75.9512309789  TIP3      441             0.0000000000
     18698       578  TIP3      OH2            38.2592206887        3.1496894734       70.2208153592  TIP3      442             0.0000000000
     18699       578  TIP3      H1             38.9667234291        3.4954955911       70.8050601621  TIP3      442             0.0000000000
     18700       578  TIP3      H2             38.6933575440        3.0295238675       69.3571559764  TIP3      442             0.0000000000
     18701       579  TIP3      OH2            39.3367628241        3.9248259636       65.1261303738  TIP3      443             0.0000000000
     18702       579  TIP3      H1             39.6012206287        3.2227759854       64.4983614452  TIP3      443             0.0000000000
     18703       579  TIP3      H2             40.1127939778        4.4957843903       64.9600735795  TIP3      443             0.0000000000
     18704       580  TIP3      OH2            49.4121529258        7.9253097747       75.3165634111  TIP3      444             0.0000000000
     18705       580  TIP3      H1             50.0016523307        7.2422229620       74.9060136789  TIP3      444             0.0000000000
     18706       580  TIP3      H2             48.7782640031        7.3530844569       75.8190304906  TIP3      444             0.0000000000
     18707       581  TIP3      OH2            46.5093433381        3.8117144944       70.3046316863  TIP3      445             0.0000000000
     18708       581  TIP3      H1             45.5436623273        3.6883496837       70.3384732019  TIP3      445             0.0000000000
     18709       581  TIP3      H2             46.7632420267        3.5855454741       71.2083164406  TIP3      445             0.0000000000
     18710       582  TIP3      OH2            40.8223558145        5.2599660883       69.2622819050  TIP3      446             0.0000000000
     18711       582  TIP3      H1             40.0367387151        5.5727501532       68.7608042937  TIP3      446             0.0000000000
     18712       582  TIP3      H2             40.9522215553        4.3541049344       68.9166799744  TIP3      446             0.0000000000
     18713       583  TIP3      OH2            44.3148369628        5.5973580264       66.5180305065  TIP3      447             0.0000000000
     18714       583  TIP3      H1             45.2462371030        5.5132865898       66.8452643819  TIP3      447             0.0000000000
     18715       583  TIP3      H2             44.4175591315        6.0588369937       65.6787723413  TIP3      447             0.0000000000
     18716       584  TIP3      OH2            50.8828075884        3.0797356034       73.7704577446  TIP3      448             0.0000000000
     18717       584  TIP3      H1             49.9737219474        3.2927064456       74.0339290390  TIP3      448             0.0000000000
     18718       584  TIP3      H2             50.7358568139        2.8744700623       72.8301126589  TIP3      448             0.0000000000
     18719       585  TIP3      OH2            43.6199187444        6.8202855343       62.9545704231  TIP3      449             0.0000000000
     18720       585  TIP3      H1             42.9923615750        7.0577911359       62.2224858828  TIP3      449             0.0000000000
     18721       585  TIP3      H2             43.5536536446        5.8681375194       62.8043757621  TIP3      449             0.0000000000
     18722       586  TIP3      OH2            53.4755774822       18.5675001425       80.0503558433  TIP3      450             0.0000000000
     18723       586  TIP3      H1             53.7256730261       18.5269603023       79.1087188072  TIP3      450             0.0000000000
     18724       586  TIP3      H2             54.3201075696       18.8191843031       80.4699945062  TIP3      450             0.0000000000
     18725       587  TIP3      OH2            41.2672764764       11.1163414942       79.4703800328  TIP3      451             0.0000000000
     18726       587  TIP3      H1             41.9340379486       11.1519919044       80.1872130029  TIP3      451             0.0000000000
     18727       587  TIP3      H2             40.4358473820       10.9860439380       79.9833115227  TIP3      451             0.0000000000
     18728       588  TIP3      OH2            46.6116361115        6.6097010921       71.9698064155  TIP3      452             0.0000000000
     18729       588  TIP3      H1             47.5082866482        6.2783300483       71.7851768358  TIP3      452             0.0000000000
     18730       588  TIP3      H2             46.3583433917        6.0034181834       72.6940449993  TIP3      452             0.0000000000
     18731       589  TIP3      OH2            41.8436412448        2.8193307665       68.6700641764  TIP3      453             0.0000000000
     18732       589  TIP3      H1             41.4369393283        1.9771725972       68.9623955004  TIP3      453             0.0000000000
     18733       589  TIP3      H2             42.5808910037        2.4875956466       68.1495999445  TIP3      453             0.0000000000
     18734       590  TIP3      OH2            46.0518139273        4.8390046573       74.1413694981  TIP3      454             0.0000000000
     18735       590  TIP3      H1             45.2176798449        5.3640017003       74.1633474188  TIP3      454             0.0000000000
     18736       590  TIP3      H2             46.5064619001        5.1614075316       74.9335236700  TIP3      454             0.0000000000
     18737       591  TIP3      OH2            46.7453747763       10.9178171780       66.9991066492  TIP3      455             0.0000000000
     18738       591  TIP3      H1             46.0459695799       10.4235244216       66.5164242954  TIP3      455             0.0000000000
     18739       591  TIP3      H2             46.2597182588       11.3715549365       67.7216365115  TIP3      455             0.0000000000
     18740       592  TIP3      OH2            54.1856956644       10.7857800722       75.0932122290  TIP3      456             0.0000000000
     18741       592  TIP3      H1             54.6104590500       11.1944583264       74.2997252039  TIP3      456             0.0000000000
     18742       592  TIP3      H2             53.2688538403       10.7773603874       74.7746724265  TIP3      456             0.0000000000
     18743       593  TIP3      OH2            47.4347810289       11.3635311125       77.1692306449  TIP3      457             0.0000000000
     18744       593  TIP3      H1             47.6553144370       11.1142843986       78.0709522571  TIP3      457             0.0000000000
     18745       593  TIP3      H2             47.2927518993       12.3259945745       77.2551471544  TIP3      457             0.0000000000
     18746       594  TIP3      OH2            50.4557922839        5.7628746887       66.0829399707  TIP3      458             0.0000000000
     18747       594  TIP3      H1             51.3614926871        5.6998475475       66.4559449816  TIP3      458             0.0000000000
     18748       594  TIP3      H2             50.5176815942        6.6340043788       65.6450913723  TIP3      458             0.0000000000
     18749       595  TIP3      OH2            41.8494483617       10.6657238298       72.0536718982  TIP3      459             0.0000000000
     18750       595  TIP3      H1             42.5568289412       10.4943983033       71.4202297766  TIP3      459             0.0000000000
     18751       595  TIP3      H2             41.8782099510        9.8671093094       72.6116099014  TIP3      459             0.0000000000
     18752       596  TIP3      OH2            48.3584125083       12.5283302604       65.6133427056  TIP3      460             0.0000000000
     18753       596  TIP3      H1             47.9830691271       13.4300181778       65.4973571554  TIP3      460             0.0000000000
     18754       596  TIP3      H2             47.6409472740       12.0277070298       66.0552070176  TIP3      460             0.0000000000
     18755       597  TIP3      OH2            38.5682053058        8.7705669984       77.3593250320  TIP3      461             0.0000000000
     18756       597  TIP3      H1             38.4526705169        8.1272382172       78.0895981075  TIP3      461             0.0000000000
     18757       597  TIP3      H2             38.0543015572        8.3573748157       76.6444504313  TIP3      461             0.0000000000
     18758       598  TIP3      OH2            46.0032545579        8.3966830471       78.9709240724  TIP3      462             0.0000000000
     18759       598  TIP3      H1             45.5593855534        7.7906023511       78.3595945833  TIP3      462             0.0000000000
     18760       598  TIP3      H2             46.8754051111        7.9482440293       79.0598589010  TIP3      462             0.0000000000
     18761       599  TIP3      OH2            50.5639329248       13.9309070822       77.6009559817  TIP3      463             0.0000000000
     18762       599  TIP3      H1             49.7733205859       13.9572736543       77.0449516754  TIP3      463             0.0000000000
     18763       599  TIP3      H2             50.2446451628       14.4526967314       78.3666363573  TIP3      463             0.0000000000
     18764       600  TIP3      OH2            55.6255819732        6.3072626110       66.3312206919  TIP3      464             0.0000000000
     18765       600  TIP3      H1             55.8771080614        5.8050036161       65.5455716623  TIP3      464             0.0000000000
     18766       600  TIP3      H2             55.5983913314        7.2381572367       65.9954255005  TIP3      464             0.0000000000
     18767       601  TIP3      OH2            56.2333326108       12.1775807922       78.4453749740  TIP3      465             0.0000000000
     18768       601  TIP3      H1             55.2940410956       12.1169917945       78.1839208180  TIP3      465             0.0000000000
     18769       601  TIP3      H2             56.6859620004       11.9312377569       77.6096323243  TIP3      465             0.0000000000
     18770       602  TIP3      OH2            51.6606481054        9.6710888737       73.2637939586  TIP3      466             0.0000000000
     18771       602  TIP3      H1             50.7607601120        9.3717064226       73.0102144747  TIP3      466             0.0000000000
     18772       602  TIP3      H2             52.2205816108        9.0703788144       72.7397750755  TIP3      466             0.0000000000
     18773       603  TIP3      OH2            43.8672698536       13.9349293065       69.4208471066  TIP3      467             0.0000000000
     18774       603  TIP3      H1             44.7490618831       14.3371761750       69.3921967621  TIP3      467             0.0000000000
     18775       603  TIP3      H2             43.3544045691       14.6965221944       69.1043675397  TIP3      467             0.0000000000
     18776       604  TIP3      OH2            45.3194091450       11.7526997481       69.2005538354  TIP3      468             0.0000000000
     18777       604  TIP3      H1             44.8131054521       12.5849720463       69.0595203335  TIP3      468             0.0000000000
     18778       604  TIP3      H2             44.5823059956       11.1360880411       69.3512842064  TIP3      468             0.0000000000
     18779       605  TIP3      OH2            45.9913142732       15.8673188405       75.7944137974  TIP3      469             0.0000000000
     18780       605  TIP3      H1             46.6789559177       16.4754472505       75.4655130027  TIP3      469             0.0000000000
     18781       605  TIP3      H2             46.5314006553       15.2770840618       76.3612043097  TIP3      469             0.0000000000
     18782       606  TIP3      OH2            43.9713542147       16.5212095915       68.2733724674  TIP3      470             0.0000000000
     18783       606  TIP3      H1             43.0531375537       16.7532770612       68.5345252705  TIP3      470             0.0000000000
     18784       606  TIP3      H2             44.4540724980       17.3114240492       68.5863394817  TIP3      470             0.0000000000
     18785       607  TIP3      OH2            49.1698941418       11.7864058919       74.9035929843  TIP3      471             0.0000000000
     18786       607  TIP3      H1             48.7875192884       11.4387906411       75.7424913105  TIP3      471             0.0000000000
     18787       607  TIP3      H2             49.7998089931       11.0971023362       74.6338643826  TIP3      471             0.0000000000
     18788       608  TIP3      OH2            51.8856490915       13.0939076761       64.1058918194  TIP3      472             0.0000000000
     18789       608  TIP3      H1             51.9509904650       12.5691871830       64.9284300157  TIP3      472             0.0000000000
     18790       608  TIP3      H2             51.0288422701       12.7899060543       63.7816759300  TIP3      472             0.0000000000
     18791       609  TIP3      OH2            52.4542437107       16.8058730664       77.4780933091  TIP3      473             0.0000000000
     18792       609  TIP3      H1             51.6391822004       16.2909104089       77.3275938737  TIP3      473             0.0000000000
     18793       609  TIP3      H2             52.4933151834       17.3356969231       76.6558251811  TIP3      473             0.0000000000
     18794       610  TIP3      OH2            40.3096195555        3.5686985283       76.3617178530  TIP3      474             0.0000000000
     18795       610  TIP3      H1             39.3638723720        3.7497285020       76.2186285233  TIP3      474             0.0000000000
     18796       610  TIP3      H2             40.3170896947        2.8193757398       76.9747000870  TIP3      474             0.0000000000
     18797       611  TIP3      OH2            52.6634541068       11.3453251241       66.0791890237  TIP3      475             0.0000000000
     18798       611  TIP3      H1             52.5669105393       10.5814136828       66.6892993505  TIP3      475             0.0000000000
     18799       611  TIP3      H2             53.6154119792       11.5211378370       66.2139365340  TIP3      475             0.0000000000
     18800       612  TIP3      OH2            40.0413470899       15.5370312515       75.0858406306  TIP3      476             0.0000000000
     18801       612  TIP3      H1             40.6642182060       14.9324332295       75.5098156869  TIP3      476             0.0000000000
     18802       612  TIP3      H2             39.3507627580       15.6819802821       75.7504921293  TIP3      476             0.0000000000
     18803       613  TIP3      OH2            48.8237225769        3.3556604778       76.4584333938  TIP3      477             0.0000000000
     18804       613  TIP3      H1             49.6887588942        3.4490777425       76.8881048179  TIP3      477             0.0000000000
     18805       613  TIP3      H2             48.5011241561        2.5210428578       76.8582754493  TIP3      477             0.0000000000
     18806       614  TIP3      OH2            49.6638975481        2.9474927034       67.1622265093  TIP3      478             0.0000000000
     18807       614  TIP3      H1             49.8722563062        3.8352267570       66.8386451492  TIP3      478             0.0000000000
     18808       614  TIP3      H2             50.2144359637        2.9150061609       67.9713334562  TIP3      478             0.0000000000
     18809       615  TIP3      OH2            47.2622986593       15.1901756773       65.4085257209  TIP3      479             0.0000000000
     18810       615  TIP3      H1             46.3817792484       15.4791605792       65.7293129738  TIP3      479             0.0000000000
     18811       615  TIP3      H2             47.6129139844       15.9975924435       64.9952293308  TIP3      479             0.0000000000
     18812       616  TIP3      OH2            46.6371161792        5.0739179192       67.7929683540  TIP3      480             0.0000000000
     18813       616  TIP3      H1             47.4020162912        5.6366680666       67.9995702756  TIP3      480             0.0000000000
     18814       616  TIP3      H2             46.5639301651        4.5396845644       68.6151806640  TIP3      480             0.0000000000
     18815       617  TIP3      OH2            48.0821827186        6.1269753352       76.7425319505  TIP3      481             0.0000000000
     18816       617  TIP3      H1             48.0947746764        6.2676994415       77.7080812303  TIP3      481             0.0000000000
     18817       617  TIP3      H2             48.3896818933        5.1934143277       76.6575190851  TIP3      481             0.0000000000
     18818       618  TIP3      OH2            47.8641127579        1.6685914903       68.7881342338  TIP3      482             0.0000000000
     18819       618  TIP3      H1             47.4876061203        2.4034181307       69.3216954690  TIP3      482             0.0000000000
     18820       618  TIP3      H2             48.3732704946        2.1702570330       68.1126297216  TIP3      482             0.0000000000
     18821       619  TIP3      OH2            44.7030897688       16.3044734173       65.6920682024  TIP3      483             0.0000000000
     18822       619  TIP3      H1             44.9956389363       17.1236262423       65.2395879090  TIP3      483             0.0000000000
     18823       619  TIP3      H2             44.2837128202       16.6303640701       66.5185683241  TIP3      483             0.0000000000
     18824       620  TIP3      OH2            43.9639247895        3.1985566640       65.4264325780  TIP3      484             0.0000000000
     18825       620  TIP3      H1             44.1614919634        4.1173743688       65.6914136776  TIP3      484             0.0000000000
     18826       620  TIP3      H2             44.4671471087        2.7012583176       66.0850762544  TIP3      484             0.0000000000
     18827       621  TIP3      OH2            53.3016052744        3.8393710943       77.3661175136  TIP3      485             0.0000000000
     18828       621  TIP3      H1             52.4640941359        4.3335609562       77.2653625135  TIP3      485             0.0000000000
     18829       621  TIP3      H2             53.4240658236        3.5269508789       76.4377998708  TIP3      485             0.0000000000
     18830       622  TIP3      OH2            52.5350765676        7.4024484332       71.4628096271  TIP3      486             0.0000000000
     18831       622  TIP3      H1             51.7647761363        6.8340917537       71.6185425089  TIP3      486             0.0000000000
     18832       622  TIP3      H2             53.2288359261        6.9460702263       71.9849909877  TIP3      486             0.0000000000
     18833       623  TIP3      OH2            53.1815352375       16.6454038559       73.2151965784  TIP3      487             0.0000000000
     18834       623  TIP3      H1             52.8762131834       17.2075212309       72.4895671974  TIP3      487             0.0000000000
     18835       623  TIP3      H2             54.1539287324       16.7116002826       73.0997301880  TIP3      487             0.0000000000
     18836       624  TIP3      OH2            41.2723511607        1.0839033936       71.8945053253  TIP3      488             0.0000000000
     18837       624  TIP3      H1             41.1190164055        0.8805569791       70.9593541329  TIP3      488             0.0000000000
     18838       624  TIP3      H2             40.8559684583        0.2993101280       72.3220428634  TIP3      488             0.0000000000
     18839       625  TIP3      OH2            39.4933495697       14.3378272222       67.9243845871  TIP3      489             0.0000000000
     18840       625  TIP3      H1             39.1657117187       14.5847631172       68.7992476256  TIP3      489             0.0000000000
     18841       625  TIP3      H2             39.7850098336       15.1826045784       67.5359061313  TIP3      489             0.0000000000
     18842       626  TIP3      OH2            38.9683314198       17.2206399365       79.4180362330  TIP3      490             0.0000000000
     18843       626  TIP3      H1             38.8331348439       17.0019421166       80.3503903586  TIP3      490             0.0000000000
     18844       626  TIP3      H2             38.6537245505       16.3696754417       79.0396093692  TIP3      490             0.0000000000
     18845       627  TIP3      OH2            44.0341813140       16.2072567936       81.0091369366  TIP3      491             0.0000000000
     18846       627  TIP3      H1             44.9823996472       16.0352506014       81.0883593134  TIP3      491             0.0000000000
     18847       627  TIP3      H2             43.7694256689       15.5059882981       80.3850338898  TIP3      491             0.0000000000
     18848       628  TIP3      OH2            50.1173170664       14.9834965358       80.0663212246  TIP3      492             0.0000000000
     18849       628  TIP3      H1             50.0915947948       14.1247667110       80.5468893618  TIP3      492             0.0000000000
     18850       628  TIP3      H2             51.0163287201       15.2540523034       80.3459288910  TIP3      492             0.0000000000
     18851       629  TIP3      OH2            38.7871926782       11.1887497573       80.6843275760  TIP3      493             0.0000000000
     18852       629  TIP3      H1             38.3313105318       10.3339903971       80.6921104114  TIP3      493             0.0000000000
     18853       629  TIP3      H2             38.2996949810       11.6487627712       79.9635587966  TIP3      493             0.0000000000
     18854       630  TIP3      OH2            45.6974438936       11.0398692608       79.6385943254  TIP3      494             0.0000000000
     18855       630  TIP3      H1             45.5179849718       11.6432071073       78.8835740594  TIP3      494             0.0000000000
     18856       630  TIP3      H2             45.8875208952       10.1732166204       79.1935493613  TIP3      494             0.0000000000
     18857       631  TIP3      OH2            51.1697772473       11.1866080641       77.7679691611  TIP3      495             0.0000000000
     18858       631  TIP3      H1             52.0743962684       11.5552545108       77.6478501616  TIP3      495             0.0000000000
     18859       631  TIP3      H2             50.7316487345       12.0604721739       77.8341272109  TIP3      495             0.0000000000
     18860       632  TIP3      OH2            40.0953870243        8.2533629675       80.1125218689  TIP3      496             0.0000000000
     18861       632  TIP3      H1             40.8616542844        7.6761261431       80.1681786524  TIP3      496             0.0000000000
     18862       632  TIP3      H2             40.3155615288        8.9350465131       80.7755695774  TIP3      496             0.0000000000
     18863       633  TIP3      OH2            44.7435379205        9.5579038775       65.4152133568  TIP3      497             0.0000000000
     18864       633  TIP3      H1             43.8302373874        9.6009689627       65.7674683986  TIP3      497             0.0000000000
     18865       633  TIP3      H2             44.5985000396        9.0006340300       64.6392428731  TIP3      497             0.0000000000
     18866       634  TIP3      OH2            43.3271306427        7.3019884421       76.7990402066  TIP3      498             0.0000000000
     18867       634  TIP3      H1             42.8903567292        8.1781562652       76.7741961246  TIP3      498             0.0000000000
     18868       634  TIP3      H2             44.1827960537        7.5804120889       76.4045461763  TIP3      498             0.0000000000
     18869       635  TIP3      OH2            49.2889652860       10.0796134280       80.7017385782  TIP3      499             0.0000000000
     18870       635  TIP3      H1             49.9122384810        9.6551742943       80.0877542883  TIP3      499             0.0000000000
     18871       635  TIP3      H2             49.0738417200        9.3590758201       81.3118284635  TIP3      499             0.0000000000
     18872       636  TIP3      OH2            55.5935479167       10.1391508430       62.8088624223  TIP3      500             0.0000000000
     18873       636  TIP3      H1             54.8124635524        9.7417332779       62.3898075049  TIP3      500             0.0000000000
     18874       636  TIP3      H2             56.2182391195       10.2523756715       62.0772213451  TIP3      500             0.0000000000
     18875       637  TIP3      OH2            44.7577263926        5.2796739923       78.0200089574  TIP3      501             0.0000000000
     18876       637  TIP3      H1             44.7429190932        4.5249555692       77.3851003446  TIP3      501             0.0000000000
     18877       637  TIP3      H2             44.2712564348        5.9619486422       77.5182690545  TIP3      501             0.0000000000
     18878       638  TIP3      OH2            44.8306963615        3.3517659591       76.0353929772  TIP3      502             0.0000000000
     18879       638  TIP3      H1             45.3405938563        3.5577855519       75.2280446386  TIP3      502             0.0000000000
     18880       638  TIP3      H2             43.9271121098        3.3954639111       75.6496432706  TIP3      502             0.0000000000
     18881       639  TIP3      OH2            45.8072506911        8.5188216443       76.0231978420  TIP3      503             0.0000000000
     18882       639  TIP3      H1             46.7404814270        8.7544872789       75.9217203275  TIP3      503             0.0000000000
     18883       639  TIP3      H2             45.3602154247        9.3458507471       75.7138640213  TIP3      503             0.0000000000
     18884       640  TIP3      OH2            50.2442284710        6.4359787154       81.2351921419  TIP3      504             0.0000000000
     18885       640  TIP3      H1             50.3909288066        5.4771956999       81.2809394916  TIP3      504             0.0000000000
     18886       640  TIP3      H2             51.1434644768        6.7833878868       81.1834815923  TIP3      504             0.0000000000
     18887       641  TIP3      OH2            52.0307218754        9.4015309317       79.6786718174  TIP3      505             0.0000000000
     18888       641  TIP3      H1             51.6445495159        9.9405214635       78.9583796286  TIP3      505             0.0000000000
     18889       641  TIP3      H2             52.9737014532        9.3261355098       79.4092184701  TIP3      505             0.0000000000
     18890       642  TIP3      OH2            42.8055975798        5.9575412213       80.5417761634  TIP3      506             0.0000000000
     18891       642  TIP3      H1             42.1287252957        5.3330166999       80.2079947215  TIP3      506             0.0000000000
     18892       642  TIP3      H2             43.4882014193        5.9153615333       79.8491441733  TIP3      506             0.0000000000
     18893       643  TIP3      OH2            45.5785416166        0.8313439929       75.7878147659  TIP3      507             0.0000000000
     18894       643  TIP3      H1             45.3228722741        1.7284637334       76.0919510054  TIP3      507             0.0000000000
     18895       643  TIP3      H2             44.7346620014        0.5592030049       75.4049771064  TIP3      507             0.0000000000
     18896       644  TIP3      OH2            46.6010522242        5.1266252641       80.1381970584  TIP3      508             0.0000000000
     18897       644  TIP3      H1             46.2457786544        4.8192105911       80.9838499991  TIP3      508             0.0000000000
     18898       644  TIP3      H2             45.9014700570        4.8568895392       79.5032243779  TIP3      508             0.0000000000
     18899       645  TIP3      OH2            48.9848500457        4.2459180361       79.3414456165  TIP3      509             0.0000000000
     18900       645  TIP3      H1             48.0452765727        4.3013194846       79.5965843769  TIP3      509             0.0000000000
     18901       645  TIP3      H2             49.3606205769        3.6431703853       80.0106612679  TIP3      509             0.0000000000
     18902       646  TIP3      OH2            50.9755461673        2.9356386219       80.8634750751  TIP3      510             0.0000000000
     18903       646  TIP3      H1             51.1911994016        1.9838688345       80.8946423137  TIP3      510             0.0000000000
     18904       646  TIP3      H2             50.8149175926        3.1067410746       81.8193941459  TIP3      510             0.0000000000
     18905       647  TIP3      OH2            40.8883451600        3.6940860986       80.5231069727  TIP3      511             0.0000000000
     18906       647  TIP3      H1             41.0319339296        3.0667137389       79.7901068235  TIP3      511             0.0000000000
     18907       647  TIP3      H2             40.7403467863        3.0867127290       81.2841578422  TIP3      511             0.0000000000
     18908       648  TIP3      OH2            45.3842211547        1.1906582609       78.8308230134  TIP3      512             0.0000000000
     18909       648  TIP3      H1             46.1672455695        0.6240711101       78.9483340673  TIP3      512             0.0000000000
     18910       648  TIP3      H2             45.0271559593        0.7823552516       78.0280431491  TIP3      512             0.0000000000
     18911       649  TIP3      OH2            46.0680565442        2.0918014780       81.6770977136  TIP3      513             0.0000000000
     18912       649  TIP3      H1             45.8352057496        1.5551352019       80.9107263907  TIP3      513             0.0000000000
     18913       649  TIP3      H2             45.3252194695        2.7328052612       81.7201812000  TIP3      513             0.0000000000
     18914       650  TIP3      OH2            45.8037949170       18.4903726276       64.3827023127  TIP3      514             0.0000000000
     18915       650  TIP3      H1             46.7750407841       18.5677009017       64.3349420679  TIP3      514             0.0000000000
     18916       650  TIP3      H2             45.5647320302       18.4009167843       63.4225271982  TIP3      514             0.0000000000
     18917       651  TIP3      OH2            37.6435011478       18.3535298462       69.0073772436  TIP3      515             0.0000000000
     18918       651  TIP3      H1             36.9016885668       17.7508355363       68.8760244701  TIP3      515             0.0000000000
     18919       651  TIP3      H2             38.1824484252       17.8321655157       69.6360540837  TIP3      515             0.0000000000
     18920       652  TIP3      OH2            38.8180409400       16.5632885300       70.8411913402  TIP3      516             0.0000000000
     18921       652  TIP3      H1             38.0757406574       16.3324321233       71.4289600863  TIP3      516             0.0000000000
     18922       652  TIP3      H2             39.5070588807       16.7337360196       71.5155897473  TIP3      516             0.0000000000
     18923       653  TIP3      OH2            56.0333802307       16.9178340802       73.1956733427  TIP3      517             0.0000000000
     18924       653  TIP3      H1             56.2384596553       16.9901632300       74.1405744677  TIP3      517             0.0000000000
     18925       653  TIP3      H2             56.7371883379       17.4457064834       72.8054649546  TIP3      517             0.0000000000
     18926       654  TIP3      OH2            55.8863648406       16.4521674702       76.3857266378  TIP3      518             0.0000000000
     18927       654  TIP3      H1             55.4648261694       15.6251598626       76.0540824651  TIP3      518             0.0000000000
     18928       654  TIP3      H2             56.2026335590       16.1511846117       77.2622364722  TIP3      518             0.0000000000
     18929       655  TIP3      OH2            54.6174090908       12.6257680890       81.4563485376  TIP3      519             0.0000000000
     18930       655  TIP3      H1             53.7331833015       12.7814539969       81.8618101193  TIP3      519             0.0000000000
     18931       655  TIP3      H2             55.0938155440       13.4202604357       81.8041658061  TIP3      519             0.0000000000
     18932       656  TIP3      OH2            55.4476315722       10.9695493186       66.6584962184  TIP3      520             0.0000000000
     18933       656  TIP3      H1             56.3994827308       11.2016485580       66.7627734880  TIP3      520             0.0000000000
     18934       656  TIP3      H2             55.2774361569       10.3748398970       67.4149760766  TIP3      520             0.0000000000
     18935       657  TIP3      OH2            56.1767430066        8.8478308975       68.8365930884  TIP3      521             0.0000000000
     18936       657  TIP3      H1             55.3303815843        8.3806411436       69.0291460321  TIP3      521             0.0000000000
     18937       657  TIP3      H2             56.4950517533        9.0767195753       69.7234052321  TIP3      521             0.0000000000
     18938       658  TIP3      OH2            55.4059927023       11.5911393240       72.9383095141  TIP3      522             0.0000000000
     18939       658  TIP3      H1             56.2304851746       11.0738253308       73.0514863279  TIP3      522             0.0000000000
     18940       658  TIP3      H2             55.7487567030       12.5019806038       72.8842925197  TIP3      522             0.0000000000
     18941       659  TIP3      OH2            54.3242910224       14.3928572076       75.8277657995  TIP3      523             0.0000000000
     18942       659  TIP3      H1             53.5507177924       14.8426790865       76.1953587038  TIP3      523             0.0000000000
     18943       659  TIP3      H2             53.9454913449       14.0486006025       74.9876030784  TIP3      523             0.0000000000
     18944       660  TIP3      OH2            55.7993015609        8.7059209880       65.2006823769  TIP3      524             0.0000000000
     18945       660  TIP3      H1             55.8664517437        8.9774218750       64.2627795572  TIP3      524             0.0000000000
     18946       660  TIP3      H2             55.5660683274        9.5676521339       65.5956251769  TIP3      524             0.0000000000
     18947       661  TIP3      OH2            53.8382396414        7.3830670078       69.0967136595  TIP3      525             0.0000000000
     18948       661  TIP3      H1             53.2995881525        6.6649091547       68.7127609032  TIP3      525             0.0000000000
     18949       661  TIP3      H2             53.4836818853        7.4233376075       70.0130563232  TIP3      525             0.0000000000
     18950       662  TIP3      OH2            38.7879955279        9.9462928743       73.2472883385  TIP3      526             0.0000000000
     18951       662  TIP3      H1             38.8393568030        9.5821806485       72.3285254357  TIP3      526             0.0000000000
     18952       662  TIP3      H2             39.6534263285        9.6231834152       73.5877141513  TIP3      526             0.0000000000
     18953       663  TIP3      OH2            54.9981722940        9.2605242450       79.0443936708  TIP3      527             0.0000000000
     18954       663  TIP3      H1             55.3721715017        8.4033824293       79.3697498725  TIP3      527             0.0000000000
     18955       663  TIP3      H2             55.5801687947        9.4605144141       78.2820401923  TIP3      527             0.0000000000
     18956       664  TIP3      OH2            56.0394025410        6.9191286183       79.9288832238  TIP3      528             0.0000000000
     18957       664  TIP3      H1             55.3013329458        6.3774826916       79.5742571083  TIP3      528             0.0000000000
     18958       664  TIP3      H2             56.8226127697        6.4019519548       79.6185070245  TIP3      528             0.0000000000
     18959       665  TIP3      OH2            52.8420127687        5.5698904987       67.2855434027  TIP3      529             0.0000000000
     18960       665  TIP3      H1             53.1991868397        4.6711359901       67.4849486381  TIP3      529             0.0000000000
     18961       665  TIP3      H2             53.6869344443        5.9883899928       67.0297988828  TIP3      529             0.0000000000
     18962       666  TIP3      OH2            54.3529519754        5.8586082989       72.9112801897  TIP3      530             0.0000000000
     18963       666  TIP3      H1             55.3377123533        5.8910729037       73.0059686788  TIP3      530             0.0000000000
     18964       666  TIP3      H2             54.1057749813        6.0657665984       73.8372196214  TIP3      530             0.0000000000
     18965       667  TIP3      OH2            53.9082450682        6.3900458984       75.5084323378  TIP3      531             0.0000000000
     18966       667  TIP3      H1             53.0872828188        6.8175260351       75.8261572210  TIP3      531             0.0000000000
     18967       667  TIP3      H2             54.5310209507        7.1427160978       75.4558727889  TIP3      531             0.0000000000
     18968       668  TIP3      OH2            39.0091576714        5.0375409293       79.2283423938  TIP3      532             0.0000000000
     18969       668  TIP3      H1             39.7514760074        4.6531174756       79.7372219813  TIP3      532             0.0000000000
     18970       668  TIP3      H2             38.3885320859        4.2805647069       79.2741127319  TIP3      532             0.0000000000
     18971       669  TIP3      OH2            57.0870146106        1.1437266145       80.7897423612  TIP3      533             0.0000000000
     18972       669  TIP3      H1             57.0445556683        0.5270762646       80.0422196236  TIP3      533             0.0000000000
     18973       669  TIP3      H2             57.2311851229        1.9786702141       80.2942353586  TIP3      533             0.0000000000
     18974       670  TIP3      OH2            54.1782759963        3.3159372418       67.5227675090  TIP3      534             0.0000000000
     18975       670  TIP3      H1             54.3283883158        2.7611005262       68.3163665840  TIP3      534             0.0000000000
     18976       670  TIP3      H2             53.4296880319        2.8196971230       67.1152699168  TIP3      534             0.0000000000
     18977       671  TIP3      OH2            39.6954970990        3.3666302417       72.4678934101  TIP3      535             0.0000000000
     18978       671  TIP3      H1             39.9374589249        2.4176684862       72.4916253420  TIP3      535             0.0000000000
     18979       671  TIP3      H2             40.5637401730        3.7967195578       72.5342174960  TIP3      535             0.0000000000
     18980       672  TIP3      OH2            38.1936015197        6.0148332008       73.3628794050  TIP3      536             0.0000000000
     18981       672  TIP3      H1             38.5995004855        5.5021267620       72.6399459202  TIP3      536             0.0000000000
     18982       672  TIP3      H2             38.7759984364        6.7898480825       73.3995863958  TIP3      536             0.0000000000
     18983       673  TIP3      OH2            55.9363407966        3.1121901269       79.3037280721  TIP3      537             0.0000000000
     18984       673  TIP3      H1             55.2874693614        3.4632657332       79.9590333527  TIP3      537             0.0000000000
     18985       673  TIP3      H2             55.3083680360        2.6826092764       78.6973676075  TIP3      537             0.0000000000
     18986       674  TIP3      OH2            38.3685482905        2.6757987008       67.5447374616  TIP3      538             0.0000000000
     18987       674  TIP3      H1             37.4825992079        2.4447843738       67.2375297222  TIP3      538             0.0000000000
     18988       674  TIP3      H2             38.6132533770        3.3384650349       66.8696420491  TIP3      538             0.0000000000
     18989       675  TIP3      OH2            53.2611770044       17.4287306311       69.8046965597  TIP3      539             0.0000000000
     18990       675  TIP3      H1             53.6422397227       17.2496668640       68.9203624717  TIP3      539             0.0000000000
     18991       675  TIP3      H2             54.0579925980       17.6942684776       70.2853383363  TIP3      539             0.0000000000
     18992       676  TIP3      OH2            38.0116644980        1.2827450144       75.1160842720  TIP3      540             0.0000000000
     18993       676  TIP3      H1             38.0556895369        1.5524101559       76.0395134923  TIP3      540             0.0000000000
     18994       676  TIP3      H2             37.5639720458        2.0436856412       74.6953319808  TIP3      540             0.0000000000
     18995       677  TIP3      OH2            40.4162592882       14.2486202891       79.6016302298  TIP3      541             0.0000000000
     18996       677  TIP3      H1             39.8545690662       13.6149850414       79.1256472817  TIP3      541             0.0000000000
     18997       677  TIP3      H2             40.2728033693       13.9833798330       80.5139389960  TIP3      541             0.0000000000
     18998       678  TIP3      OH2            43.3461616196       15.6825369035       76.3893714473  TIP3      542             0.0000000000
     18999       678  TIP3      H1             43.1340124715       16.5200182836       75.9139938924  TIP3      542             0.0000000000
     19000       678  TIP3      H2             44.2971127003       15.5842169333       76.1526548345  TIP3      542             0.0000000000
     19001       679  TIP3      OH2            47.2837312853       16.5707863468       78.9114127878  TIP3      543             0.0000000000
     19002       679  TIP3      H1             47.5046284078       16.2661425838       79.8141870303  TIP3      543             0.0000000000
     19003       679  TIP3      H2             48.0336341853       17.1774467820       78.7490937539  TIP3      543             0.0000000000
     19004       680  TIP3      OH2            49.4624853145       18.3060081138       78.8472789961  TIP3      544             0.0000000000
     19005       680  TIP3      H1             50.2404273285       17.8495405750       78.4863343189  TIP3      544             0.0000000000
     19006       680  TIP3      H2             49.8928264040       18.9895182650       79.3876456513  TIP3      544             0.0000000000
     19007       681  TIP3      OH2            54.5637505280        0.3897716117       77.4020394208  TIP3      545             0.0000000000
     19008       681  TIP3      H1             54.2821870853        1.2357053252       77.0195439816  TIP3      545             0.0000000000
     19009       681  TIP3      H2             54.9980622354       -0.0471652803       76.6525774119  TIP3      545             0.0000000000
     19010       682  TIP3      OH2            40.7703475628       18.9783463908       75.9729423352  TIP3      546             0.0000000000
     19011       682  TIP3      H1             40.0173607467       19.3539678101       75.4697164357  TIP3      546             0.0000000000
     19012       682  TIP3      H2             40.5407036686       19.3387449260       76.8462002340  TIP3      546             0.0000000000
     19013       683  TIP3      OH2            42.9496922131       17.8808643070       74.9787085133  TIP3      547             0.0000000000
     19014       683  TIP3      H1             42.0547614721       18.1745731368       75.2914769404  TIP3      547             0.0000000000
     19015       683  TIP3      H2             43.0937706322       18.5330225274       74.2650831508  TIP3      547             0.0000000000
     19016       684  TIP3      OH2            47.6131918858       17.9099045422       74.5324037834  TIP3      548             0.0000000000
     19017       684  TIP3      H1             46.8566964294       18.4645660986       74.3079822657  TIP3      548             0.0000000000
     19018       684  TIP3      H2             48.0059524991       18.4638663078       75.2482928891  TIP3      548             0.0000000000
     19019       685  TIP3      OH2            49.8655228054       16.6488748856       75.7061996156  TIP3      549             0.0000000000
     19020       685  TIP3      H1             49.2061891757       17.0196984980       75.0844473003  TIP3      549             0.0000000000
     19021       685  TIP3      H2             50.5902916895       17.2918022880       75.5414081972  TIP3      549             0.0000000000
     19022       686  TIP3      OH2            51.9963286494       18.3703555350       75.2451554096  TIP3      550             0.0000000000
     19023       686  TIP3      H1             52.0521978421       19.3089664565       74.9515913268  TIP3      550             0.0000000000
     19024       686  TIP3      H2             52.4183763790       17.9300555257       74.4822186443  TIP3      550             0.0000000000
     19025       687  TIP3      OH2            40.3886738849       17.1356930404       73.0328563820  TIP3      551             0.0000000000
     19026       687  TIP3      H1             40.1630062693       16.5923097528       73.8278641707  TIP3      551             0.0000000000
     19027       687  TIP3      H2             41.2749665402       16.7831840169       72.7912719533  TIP3      551             0.0000000000
     19028       688  TIP3      OH2            42.5616729423       16.1979518951       71.6936654941  TIP3      552             0.0000000000
     19029       688  TIP3      H1             42.4200571351       15.2468941356       71.8994443593  TIP3      552             0.0000000000
     19030       688  TIP3      H2             43.4217524909       16.3399012947       72.1489393075  TIP3      552             0.0000000000
     19031       689  TIP3      OH2            44.8423718747       16.3696640965       72.9957524693  TIP3      553             0.0000000000
     19032       689  TIP3      H1             45.2365400624       15.4855125966       72.9888638877  TIP3      553             0.0000000000
     19033       689  TIP3      H2             44.9038947546       16.6310908338       73.9300878091  TIP3      553             0.0000000000
     19034       690  TIP3      OH2            48.8393743103        2.1863957115       72.0450719560  TIP3      554             0.0000000000
     19035       690  TIP3      H1             47.8901726445        1.9677950967       71.9713614277  TIP3      554             0.0000000000
     19036       690  TIP3      H2             49.1652846084        1.2864320711       72.1917968144  TIP3      554             0.0000000000
     19037       691  TIP3      OH2            53.2204715657        1.4364081148       71.6532706237  TIP3      555             0.0000000000
     19038       691  TIP3      H1             53.9287756445        1.2528612293       70.9956740954  TIP3      555             0.0000000000
     19039       691  TIP3      H2             52.4895385456        0.9238381171       71.2632715807  TIP3      555             0.0000000000
     19040       692  TIP3      OH2            55.1565431024        1.5615651762       69.6396568670  TIP3      556             0.0000000000
     19041       692  TIP3      H1             55.5438982479        0.9670932371       68.9550355909  TIP3      556             0.0000000000
     19042       692  TIP3      H2             55.8715952257        2.2335336976       69.7339048688  TIP3      556             0.0000000000
     19043       693  TIP3      OH2            40.5744486698        0.5145015989       69.0293269832  TIP3      557             0.0000000000
     19044       693  TIP3      H1             40.0312981491        0.6120199438       68.2263064470  TIP3      557             0.0000000000
     19045       693  TIP3      H2             41.2090620857       -0.1578354168       68.6981639714  TIP3      557             0.0000000000
     19046       694  TIP3      OH2            40.4158150829        0.4819401270       65.6216508672  TIP3      558             0.0000000000
     19047       694  TIP3      H1             40.5215033932        0.5175552375       64.6513830517  TIP3      558             0.0000000000
     19048       694  TIP3      H2             39.5944656899        0.9890843258       65.6733497432  TIP3      558             0.0000000000
     19049       695  TIP3      OH2            45.1569546877        1.6447238740       68.6793364943  TIP3      559             0.0000000000
     19050       695  TIP3      H1             46.0730512357        1.3088019847       68.7478896331  TIP3      559             0.0000000000
     19051       695  TIP3      H2             44.6420674476        0.9406565211       69.0858110933  TIP3      559             0.0000000000
     19052       696  TIP3      OH2            50.9104765070        0.6062404591       70.0493134956  TIP3      560             0.0000000000
     19053       696  TIP3      H1             50.5346525869        1.4128225142       69.6543098201  TIP3      560             0.0000000000
     19054       696  TIP3      H2             50.2220637406        0.3095617765       70.6723628428  TIP3      560             0.0000000000
     19055       697  TIP3      OH2            52.2031576647        1.6574351811       66.7429255370  TIP3      561             0.0000000000
     19056       697  TIP3      H1             51.2688807641        1.7059509177       66.4896392774  TIP3      561             0.0000000000
     19057       697  TIP3      H2             52.2031055313        0.7798674224       67.1866252898  TIP3      561             0.0000000000
     19058       698  TIP3      OH2            39.3360270821       17.0772527474       66.2301023692  TIP3      562             0.0000000000
     19059       698  TIP3      H1             39.3481608471       16.6873816633       65.3446154598  TIP3      562             0.0000000000
     19060       698  TIP3      H2             39.5143688460       18.0188514052       65.9764077938  TIP3      562             0.0000000000
     19061       699  TIP3      OH2            41.8295757612        3.6455323097       63.7544269271  TIP3      563             0.0000000000
     19062       699  TIP3      H1             42.0936012041        3.4253798076       62.8358994323  TIP3      563             0.0000000000
     19063       699  TIP3      H2             42.6124453044        3.3002702003       64.2350521425  TIP3      563             0.0000000000
     19064       700  TIP3      OH2            48.4080514269       17.9434148404       64.5184722189  TIP3      564             0.0000000000
     19065       700  TIP3      H1             49.3661554412       17.8487003842       64.4816655199  TIP3      564             0.0000000000
     19066       700  TIP3      H2             48.2448312104       17.5929629811       63.5975937449  TIP3      564             0.0000000000
     19067       701  TIP3      OH2            54.5577144677       16.8234360359       67.4442638831  TIP3      565             0.0000000000
     19068       701  TIP3      H1             54.3637978878       16.0590645937       66.8850496973  TIP3      565             0.0000000000
     19069       701  TIP3      H2             54.5373849277       17.5604280095       66.7896002158  TIP3      565             0.0000000000
     19070       702  TIP3      OH2            40.4881090436        1.1651458576       78.9664352076  TIP3      566             0.0000000000
     19071       702  TIP3      H1             39.7692908641        0.5532380813       78.7285928193  TIP3      566             0.0000000000
     19072       702  TIP3      H2             40.5389285486        0.9917722423       79.9244905034  TIP3      566             0.0000000000
     19073       703  TIP3      OH2            42.7339837065       66.7505983519       80.9864890242  TIP3      567             0.0000000000
     19074       703  TIP3      H1             43.1742427432       67.2399849605       80.2683869247  TIP3      567             0.0000000000
     19075       703  TIP3      H2             43.0860080284       65.8507144262       80.8916043427  TIP3      567             0.0000000000
     19076       704  TIP3      OH2            51.1063024269       66.2160647040       81.3143922210  TIP3      568             0.0000000000
     19077       704  TIP3      H1             50.3413976316       65.6484791245       81.1196307864  TIP3      568             0.0000000000
     19078       704  TIP3      H2             51.8036535936       65.7874197551       80.7673857919  TIP3      568             0.0000000000
     19079       705  TIP3      OH2            54.2254811928       16.0977329350       79.3566799815  TIP3      569             0.0000000000
     19080       705  TIP3      H1             53.6761761687       16.1512534597       78.5395298686  TIP3      569             0.0000000000
     19081       705  TIP3      H2             53.8346197804       16.8195657985       79.8841451501  TIP3      569             0.0000000000
     19082       706  TIP3      OH2            59.7203013899        8.6743384285       73.9063131727  TIP3      570             0.0000000000
     19083       706  TIP3      H1             59.7266499586        7.9874168387       74.5947909982  TIP3      570             0.0000000000
     19084       706  TIP3      H2             60.2574079903        9.3474248166       74.3618237973  TIP3      570             0.0000000000
     19085       707  TIP3      OH2            60.7925051219       13.3553542637       72.1857263646  TIP3      571             0.0000000000
     19086       707  TIP3      H1             60.5242061706       12.4057533090       72.1130039232  TIP3      571             0.0000000000
     19087       707  TIP3      H2             61.7571858737       13.2049968211       72.0941153706  TIP3      571             0.0000000000
     19088       708  TIP3      OH2            57.4340853490        6.3935404902       68.3423375014  TIP3      572             0.0000000000
     19089       708  TIP3      H1             57.2070517159        7.3337495814       68.4835975453  TIP3      572             0.0000000000
     19090       708  TIP3      H2             56.8102556093        6.2200050126       67.6064034165  TIP3      572             0.0000000000
     19091       709  TIP3      OH2            58.0295465436        9.0553529975       70.8228206836  TIP3      573             0.0000000000
     19092       709  TIP3      H1             58.5696930665        8.2352758473       70.9643615825  TIP3      573             0.0000000000
     19093       709  TIP3      H2             58.4373956663        9.4316860852       70.0285409021  TIP3      573             0.0000000000
     19094       710  TIP3      OH2             0.0249730154       11.8009337825       73.9847126036  TIP3      574             0.0000000000
     19095       710  TIP3      H1              0.3831408546       10.9125925406       73.7435176835  TIP3      574             0.0000000000
     19096       710  TIP3      H2              0.4876267431       12.3947035361       73.3734567638  TIP3      574             0.0000000000
     19097       711  TIP3      OH2            61.8948130358        3.9254283391       70.4751141054  TIP3      575             0.0000000000
     19098       711  TIP3      H1             62.1686918848        4.6857024196       69.9172387756  TIP3      575             0.0000000000
     19099       711  TIP3      H2             61.6014755139        3.3035127403       69.7744593461  TIP3      575             0.0000000000
     19100       712  TIP3      OH2            59.2682531829        6.7257222346       71.1448809319  TIP3      576             0.0000000000
     19101       712  TIP3      H1             59.6503934768        6.0864839549       71.7714610729  TIP3      576             0.0000000000
     19102       712  TIP3      H2             59.4662943701        6.2980492958       70.2817901448  TIP3      576             0.0000000000
     19103       713  TIP3      OH2            63.7847319429        8.1199029223       70.5109747144  TIP3      577             0.0000000000
     19104       713  TIP3      H1             64.3547161633        7.5567063857       71.0545057927  TIP3      577             0.0000000000
     19105       713  TIP3      H2             63.2129942780        7.4392881431       70.0825596982  TIP3      577             0.0000000000
     19106       714  TIP3      OH2            61.0159718901        2.9396113847       74.6269941909  TIP3      578             0.0000000000
     19107       714  TIP3      H1             60.8406317216        3.5138701025       73.8489835264  TIP3      578             0.0000000000
     19108       714  TIP3      H2             60.2484271459        3.1686426342       75.1997889315  TIP3      578             0.0000000000
     19109       715  TIP3      OH2            63.5766189832       10.7044108981       74.4180596296  TIP3      579             0.0000000000
     19110       715  TIP3      H1             62.9058187974       11.2967133921       74.8243812496  TIP3      579             0.0000000000
     19111       715  TIP3      H2             64.3054736327       11.3269447862       74.2156915121  TIP3      579             0.0000000000
     19112       716  TIP3      OH2            60.7008336771        4.8427989966       72.7044004501  TIP3      580             0.0000000000
     19113       716  TIP3      H1             61.2673637825        5.4826289867       73.1976303843  TIP3      580             0.0000000000
     19114       716  TIP3      H2             61.2683422342        4.6357958468       71.9140262815  TIP3      580             0.0000000000
     19115       717  TIP3      OH2            61.7878163373       12.5032142887       75.4481116318  TIP3      581             0.0000000000
     19116       717  TIP3      H1             61.5702093297       13.1108512021       74.7180628978  TIP3      581             0.0000000000
     19117       717  TIP3      H2             60.9682324419       12.5830842213       75.9999838580  TIP3      581             0.0000000000
     19118       718  TIP3      OH2            58.0065568602       12.0800952155       66.5511865263  TIP3      582             0.0000000000
     19119       718  TIP3      H1             58.2691794435       12.5805399982       65.7692751808  TIP3      582             0.0000000000
     19120       718  TIP3      H2             58.0189417811       12.7717431762       67.2519989193  TIP3      582             0.0000000000
     19121       719  TIP3      OH2            64.9600879307        1.2645783915       72.7578377287  TIP3      583             0.0000000000
     19122       719  TIP3      H1             64.7858869569        0.8985817573       71.8758647837  TIP3      583             0.0000000000
     19123       719  TIP3      H2             64.0531256406        1.5554684228       72.9725252425  TIP3      583             0.0000000000
     19124       720  TIP3      OH2            62.0464761432        9.9563350568       69.7677535308  TIP3      584             0.0000000000
     19125       720  TIP3      H1             61.8548352823        9.6112254620       68.8790184838  TIP3      584             0.0000000000
     19126       720  TIP3      H2             62.8000720423        9.3803471818       70.0162830486  TIP3      584             0.0000000000
     19127       721  TIP3      OH2            63.5277067448       12.9693913642       72.0441805008  TIP3      585             0.0000000000
     19128       721  TIP3      H1             63.6702783454       13.0422024366       71.0897921345  TIP3      585             0.0000000000
     19129       721  TIP3      H2             64.4001588728       12.7094509952       72.3749083030  TIP3      585             0.0000000000
     19130       722  TIP3      OH2            62.8574495761        8.4681275372       73.1756497293  TIP3      586             0.0000000000
     19131       722  TIP3      H1             63.0295834125        8.5969899420       72.2308751928  TIP3      586             0.0000000000
     19132       722  TIP3      H2             63.0415541803        9.3634998477       73.5585426592  TIP3      586             0.0000000000
     19133       723  TIP3      OH2            63.5434856542       12.4811450621       77.5869377885  TIP3      587             0.0000000000
     19134       723  TIP3      H1             62.9885576072       13.1166496737       78.0954013034  TIP3      587             0.0000000000
     19135       723  TIP3      H2             63.0419652954       12.4051631210       76.7520517395  TIP3      587             0.0000000000
     19136       724  TIP3      OH2            60.4290693297        9.1706825071       76.4989284401  TIP3      588             0.0000000000
     19137       724  TIP3      H1             60.7767694453        9.9366028619       76.9916845338  TIP3      588             0.0000000000
     19138       724  TIP3      H2             59.7232619699        8.8958952952       77.1091887517  TIP3      588             0.0000000000
     19139       725  TIP3      OH2            62.1364976001       14.2299522867       79.0641119913  TIP3      589             0.0000000000
     19140       725  TIP3      H1             62.1944782625       15.0050213079       78.4762215285  TIP3      589             0.0000000000
     19141       725  TIP3      H2             61.1584461024       14.1098537160       79.0782431977  TIP3      589             0.0000000000
     19142       726  TIP3      OH2            61.4908508756        8.8565037148       67.0968275533  TIP3      590             0.0000000000
     19143       726  TIP3      H1             61.1547653826        9.7272872237       66.7694874511  TIP3      590             0.0000000000
     19144       726  TIP3      H2             60.7008657466        8.3096315281       67.0099448979  TIP3      590             0.0000000000
     19145       727  TIP3      OH2            57.5462327531       11.0718634346       76.4378040198  TIP3      591             0.0000000000
     19146       727  TIP3      H1             57.3209274566       10.9722633819       75.5001607252  TIP3      591             0.0000000000
     19147       727  TIP3      H2             57.5834768535       10.1275709927       76.7384312063  TIP3      591             0.0000000000
     19148       728  TIP3      OH2            57.6329630438       14.1458595734       72.9526727251  TIP3      592             0.0000000000
     19149       728  TIP3      H1             58.5234647233       13.8139303187       72.7793415205  TIP3      592             0.0000000000
     19150       728  TIP3      H2             57.8140789799       14.7773281477       73.6650540116  TIP3      592             0.0000000000
     19151       729  TIP3      OH2            60.3646524912       16.8037395357       69.1718129885  TIP3      593             0.0000000000
     19152       729  TIP3      H1             60.8579663932       16.7619994201       70.0244130886  TIP3      593             0.0000000000
     19153       729  TIP3      H2             59.6891343401       16.1338921134       69.3507333014  TIP3      593             0.0000000000
     19154       730  TIP3      OH2            59.5837334229       12.7513522192       76.8280493822  TIP3      594             0.0000000000
     19155       730  TIP3      H1             59.7072347853       12.5574894365       77.7741330420  TIP3      594             0.0000000000
     19156       730  TIP3      H2             58.8659633038       12.1182492568       76.6074548837  TIP3      594             0.0000000000
     19157       731  TIP3      OH2            62.3270487294        1.5614143798       72.8292473214  TIP3      595             0.0000000000
     19158       731  TIP3      H1             61.5180292396        1.6601041229       72.2941452428  TIP3      595             0.0000000000
     19159       731  TIP3      H2             61.9887684662        1.8984658706       73.6871752111  TIP3      595             0.0000000000
     19160       732  TIP3      OH2            62.0710931881        6.2812086742       74.5053668279  TIP3      596             0.0000000000
     19161       732  TIP3      H1             61.1768026403        6.4150222939       74.8936828625  TIP3      596             0.0000000000
     19162       732  TIP3      H2             62.1950323260        7.1105075995       73.9816319023  TIP3      596             0.0000000000
     19163       733  TIP3      OH2            62.2625074940        6.3020698506       69.1498788334  TIP3      597             0.0000000000
     19164       733  TIP3      H1             61.3236340543        6.1666758212       68.8942661994  TIP3      597             0.0000000000
     19165       733  TIP3      H2             62.6988520024        6.0804687471       68.2911321870  TIP3      597             0.0000000000
     19166       734  TIP3      OH2            59.6663474540        6.1083887837       75.6577664375  TIP3      598             0.0000000000
     19167       734  TIP3      H1             59.6488433842        6.2701820822       76.6076257871  TIP3      598             0.0000000000
     19168       734  TIP3      H2             59.1855786508        5.2603609984       75.5932288655  TIP3      598             0.0000000000
     19169       735  TIP3      OH2            63.2606343673        3.5523813244       62.6030584464  TIP3      599             0.0000000000
     19170       735  TIP3      H1             62.8467927106        3.4966589711       63.4925304268  TIP3      599             0.0000000000
     19171       735  TIP3      H2             62.5071251351        3.2494727825       62.0604986511  TIP3      599             0.0000000000
     19172       736  TIP3      OH2            57.0324490827        3.5032490222       70.1488378584  TIP3      600             0.0000000000
     19173       736  TIP3      H1             57.7542227600        3.5088813780       70.8162986737  TIP3      600             0.0000000000
     19174       736  TIP3      H2             57.0850850876        4.3864782814       69.7550649953  TIP3      600             0.0000000000
     19175       737  TIP3      OH2            57.9841445748        4.4137319467       65.2383721022  TIP3      601             0.0000000000
     19176       737  TIP3      H1             58.4961644230        3.8215775213       64.6483131844  TIP3      601             0.0000000000
     19177       737  TIP3      H2             57.9868470347        5.2075200125       64.6830043298  TIP3      601             0.0000000000
     19178       738  TIP3      OH2            64.5731593592        4.0400386944       70.3319266966  TIP3      602             0.0000000000
     19179       738  TIP3      H1             63.8096328479        3.4835806110       70.5980096412  TIP3      602             0.0000000000
     19180       738  TIP3      H2             65.1538311486        3.9650454544       71.0963551946  TIP3      602             0.0000000000
     19181       739  TIP3      OH2            59.7960003819        5.3430821500       68.9141202254  TIP3      603             0.0000000000
     19182       739  TIP3      H1             58.9705196024        5.5764351518       68.4163563963  TIP3      603             0.0000000000
     19183       739  TIP3      H2             60.0190681613        4.4721764413       68.5428013608  TIP3      603             0.0000000000
     19184       740  TIP3      OH2            63.2514996343        5.7408825271       66.7456712173  TIP3      604             0.0000000000
     19185       740  TIP3      H1             64.1909366627        5.8839414298       66.5805549227  TIP3      604             0.0000000000
     19186       740  TIP3      H2             62.8198767662        6.1959430555       66.0030384192  TIP3      604             0.0000000000
     19187       741  TIP3      OH2            60.1306788206       11.0040014964       79.3231433962  TIP3      605             0.0000000000
     19188       741  TIP3      H1             60.7746545371       11.1660433569       80.0525369270  TIP3      605             0.0000000000
     19189       741  TIP3      H2             59.2844845164       11.0174335466       79.8099606202  TIP3      605             0.0000000000
     19190       742  TIP3      OH2            61.1515155861        2.4966407490       68.3460774655  TIP3      606             0.0000000000
     19191       742  TIP3      H1             60.4083277398        1.9223196080       68.6284252497  TIP3      606             0.0000000000
     19192       742  TIP3      H2             61.8351811024        1.8506812580       68.1122682351  TIP3      606             0.0000000000
     19193       743  TIP3      OH2            64.3676278284        4.7801277180       74.2118296311  TIP3      607             0.0000000000
     19194       743  TIP3      H1             63.5896977065        5.3703018773       74.2217262412  TIP3      607             0.0000000000
     19195       743  TIP3      H2             65.0831714499        5.4272753671       74.0164076008  TIP3      607             0.0000000000
     19196       744  TIP3      OH2            65.0498512462       11.3966463002       65.8184007972  TIP3      608             0.0000000000
     19197       744  TIP3      H1             64.2814676262       10.8615213131       65.5519164933  TIP3      608             0.0000000000
     19198       744  TIP3      H2             64.8453539657       11.5813854774       66.7692650462  TIP3      608             0.0000000000
     19199       745  TIP3      OH2            60.5638991820       10.6907931817       71.8962199942  TIP3      609             0.0000000000
     19200       745  TIP3      H1             61.1095019794       10.5003184339       71.0984474084  TIP3      609             0.0000000000
     19201       745  TIP3      H2             60.1589573879        9.8256591572       72.0636089642  TIP3      609             0.0000000000
     19202       746  TIP3      OH2            57.3477800869        8.6217568133       77.4012936316  TIP3      610             0.0000000000
     19203       746  TIP3      H1             57.3818766806        8.0722117410       78.2054999451  TIP3      610             0.0000000000
     19204       746  TIP3      H2             56.9048221217        8.0580923420       76.7474911191  TIP3      610             0.0000000000
     19205       747  TIP3      OH2            64.7909197123        8.5135767891       78.8879091851  TIP3      611             0.0000000000
     19206       747  TIP3      H1             63.9142309692        8.2021215541       78.5613073038  TIP3      611             0.0000000000
     19207       747  TIP3      H2             65.3523798342        7.7211307923       78.8092691297  TIP3      611             0.0000000000
     19208       748  TIP3      OH2            62.8675647703       14.1029158822       69.5146156600  TIP3      612             0.0000000000
     19209       748  TIP3      H1             63.2669355378       14.8643928659       69.0410680258  TIP3      612             0.0000000000
     19210       748  TIP3      H2             61.9241404920       14.2370630809       69.3350181626  TIP3      612             0.0000000000
     19211       749  TIP3      OH2            64.4109612100       11.8763031317       68.4875869775  TIP3      613             0.0000000000
     19212       749  TIP3      H1             63.9110836614       12.6918861933       68.6922435095  TIP3      613             0.0000000000
     19213       749  TIP3      H2             64.0904473158       11.2604720597       69.1617022132  TIP3      613             0.0000000000
     19214       750  TIP3      OH2            64.9074037900       15.8593934695       75.5486515591  TIP3      614             0.0000000000
     19215       750  TIP3      H1             65.1849279409       16.7929479810       75.5674318130  TIP3      614             0.0000000000
     19216       750  TIP3      H2             65.3815489611       15.4773496091       76.2995667022  TIP3      614             0.0000000000
     19217       751  TIP3      OH2            63.2271803235       16.6348571646       68.5455277895  TIP3      615             0.0000000000
     19218       751  TIP3      H1             62.2621494972       16.7791219829       68.5771100379  TIP3      615             0.0000000000
     19219       751  TIP3      H2             63.5407774941       17.4495752078       69.0026193453  TIP3      615             0.0000000000
     19220       752  TIP3      OH2            58.9768422939        3.2974645551       76.3686663015  TIP3      616             0.0000000000
     19221       752  TIP3      H1             58.4747476072        3.8643857280       76.9796423349  TIP3      616             0.0000000000
     19222       752  TIP3      H2             58.6946887476        2.4169541474       76.6478388439  TIP3      616             0.0000000000
     19223       753  TIP3      OH2            59.0232914495       15.5337831313       75.0897080079  TIP3      617             0.0000000000
     19224       753  TIP3      H1             59.4475666827       14.6968857094       75.3523785508  TIP3      617             0.0000000000
     19225       753  TIP3      H2             59.3894290867       16.1268079273       75.7633440073  TIP3      617             0.0000000000
     19226       754  TIP3      OH2            63.5361941545       13.5833865873       65.2240165845  TIP3      618             0.0000000000
     19227       754  TIP3      H1             64.3544311102       13.0863335220       65.3797325919  TIP3      618             0.0000000000
     19228       754  TIP3      H2             63.7916638937       14.5246843662       65.2967781975  TIP3      618             0.0000000000
     19229       755  TIP3      OH2            60.6617166633       11.0816510978       65.8629380419  TIP3      619             0.0000000000
     19230       755  TIP3      H1             59.7418889793       11.2366921663       66.1404127098  TIP3      619             0.0000000000
     19231       755  TIP3      H2             60.8133512713       11.8752738051       65.3093438730  TIP3      619             0.0000000000
     19232       756  TIP3      OH2            65.9673313251        3.9178505519       68.0631738878  TIP3      620             0.0000000000
     19233       756  TIP3      H1             66.5364430887        3.8895099043       68.8580330556  TIP3      620             0.0000000000
     19234       756  TIP3      H2             65.1399757779        4.1232215236       68.5545462227  TIP3      620             0.0000000000
     19235       757  TIP3      OH2            63.5172918086       16.3311264041       65.8484033190  TIP3      621             0.0000000000
     19236       757  TIP3      H1             63.2756835851       17.0554630963       65.2489373148  TIP3      621             0.0000000000
     19237       757  TIP3      H2             63.4833335123       16.7078889928       66.7478813077  TIP3      621             0.0000000000
     19238       758  TIP3      OH2            62.0965878436        3.2494469992       64.9872615935  TIP3      622             0.0000000000
     19239       758  TIP3      H1             61.5966897738        3.8721077177       65.5343927869  TIP3      622             0.0000000000
     19240       758  TIP3      H2             62.7533698149        2.8762846941       65.6199011029  TIP3      622             0.0000000000
     19241       759  TIP3      OH2            60.3862265430       13.4502812371       64.3344130927  TIP3      623             0.0000000000
     19242       759  TIP3      H1             60.9348859506       14.2150625403       64.5877296630  TIP3      623             0.0000000000
     19243       759  TIP3      H2             60.9057104298       13.1655891960       63.5605015546  TIP3      623             0.0000000000
     19244       760  TIP3      OH2            59.8502965689        0.9837098432       72.0008822543  TIP3      624             0.0000000000
     19245       760  TIP3      H1             59.9696377623        0.6276492459       71.0986167562  TIP3      624             0.0000000000
     19246       760  TIP3      H2             59.6696176847        0.1412519333       72.4933455032  TIP3      624             0.0000000000
     19247       761  TIP3      OH2            58.1474825986       14.4436024462       67.9661788306  TIP3      625             0.0000000000
     19248       761  TIP3      H1             57.5707176862       15.1178123752       68.3575885735  TIP3      625             0.0000000000
     19249       761  TIP3      H2             58.5366511795       14.9717601809       67.2430673664  TIP3      625             0.0000000000
     19250       762  TIP3      OH2            57.8970114688       17.7238256055       79.8279504868  TIP3      626             0.0000000000
     19251       762  TIP3      H1             58.5496475099       17.5658720681       80.5597336044  TIP3      626             0.0000000000
     19252       762  TIP3      H2             57.5952984911       16.8122915513       79.6592095583  TIP3      626             0.0000000000
     19253       763  TIP3      OH2            62.0705109904       16.4874599513       80.8036741009  TIP3      627             0.0000000000
     19254       763  TIP3      H1             62.9455759430       16.8619247966       80.9798542319  TIP3      627             0.0000000000
     19255       763  TIP3      H2             62.3002311483       15.6599239745       80.3431503624  TIP3      627             0.0000000000
     19256       764  TIP3      OH2            57.5073889179       11.2357952683       80.6436753123  TIP3      628             0.0000000000
     19257       764  TIP3      H1             56.8667966138       10.6414461071       81.0652410444  TIP3      628             0.0000000000
     19258       764  TIP3      H2             57.0119000783       11.5517774893       79.8463216710  TIP3      628             0.0000000000
     19259       765  TIP3      OH2            62.5318148629       11.9212265542       62.6151113078  TIP3      629             0.0000000000
     19260       765  TIP3      H1             62.9723728389       11.7366118592       63.4593312295  TIP3      629             0.0000000000
     19261       765  TIP3      H2             61.8064607213       11.2844706438       62.5855968785  TIP3      629             0.0000000000
     19262       766  TIP3      OH2            64.8221072884       11.4964976502       79.7155027571  TIP3      630             0.0000000000
     19263       766  TIP3      H1             64.4027764799       11.9127944849       78.9189972852  TIP3      630             0.0000000000
     19264       766  TIP3      H2             64.8347858731       10.5600067988       79.4114279304  TIP3      630             0.0000000000
     19265       767  TIP3      OH2            59.0840226402        8.1623371659       79.9044151828  TIP3      631             0.0000000000
     19266       767  TIP3      H1             59.5801101496        7.4253461549       80.2693914594  TIP3      631             0.0000000000
     19267       767  TIP3      H2             59.3805819903        8.8756524067       80.5039834142  TIP3      631             0.0000000000
     19268       768  TIP3      OH2            62.9373825955        9.1777300695       64.6690712940  TIP3      632             0.0000000000
     19269       768  TIP3      H1             62.4647543597        9.1125461173       65.5207501179  TIP3      632             0.0000000000
     19270       768  TIP3      H2             62.2654526547        8.8014269614       64.0681272625  TIP3      632             0.0000000000
     19271       769  TIP3      OH2            62.7657055662        7.7386614985       77.3072846993  TIP3      633             0.0000000000
     19272       769  TIP3      H1             61.9714052512        8.0231748398       76.8231293715  TIP3      633             0.0000000000
     19273       769  TIP3      H2             63.5007544872        8.0251044411       76.7207913781  TIP3      633             0.0000000000
     19274       770  TIP3      OH2            63.2245867732        5.1976105669       78.1530880756  TIP3      634             0.0000000000
     19275       770  TIP3      H1             63.1721918890        4.5650329174       77.3932760343  TIP3      634             0.0000000000
     19276       770  TIP3      H2             63.1140973656        6.0551854084       77.6814781941  TIP3      634             0.0000000000
     19277       771  TIP3      OH2            63.1855242490        3.4242995238       76.1503665011  TIP3      635             0.0000000000
     19278       771  TIP3      H1             63.7791184750        3.8303664922       75.4685201638  TIP3      635             0.0000000000
     19279       771  TIP3      H2             62.3928257971        3.2488723521       75.5992859949  TIP3      635             0.0000000000
     19280       772  TIP3      OH2            65.0085576117        8.8252011371       75.9122612185  TIP3      636             0.0000000000
     19281       772  TIP3      H1             65.2087974205        8.4436424060       75.0484321590  TIP3      636             0.0000000000
     19282       772  TIP3      H2             64.7552605912        9.7197616299       75.6342098795  TIP3      636             0.0000000000
     19283       773  TIP3      OH2            61.9433604972        6.2918430375       80.5113683621  TIP3      637             0.0000000000
     19284       773  TIP3      H1             61.1157765881        5.7717964852       80.4611110096  TIP3      637             0.0000000000
     19285       773  TIP3      H2             62.4625198676        5.8965944621       79.7788691315  TIP3      637             0.0000000000
     19286       774  TIP3      OH2            63.5537575927        0.9307792611       76.7274098202  TIP3      638             0.0000000000
     19287       774  TIP3      H1             63.6215231535        1.9126032088       76.6111251180  TIP3      638             0.0000000000
     19288       774  TIP3      H2             62.8245576111        0.7302875162       76.1246914830  TIP3      638             0.0000000000
     19289       775  TIP3      OH2            65.2621456687        4.8494028122       80.1514223879  TIP3      639             0.0000000000
     19290       775  TIP3      H1             64.6805746615        4.4614702598       80.8337586155  TIP3      639             0.0000000000
     19291       775  TIP3      H2             64.6898985756        4.8124679823       79.3623958561  TIP3      639             0.0000000000
     19292       776  TIP3      OH2            60.0339062987        4.1824433354       80.4161942343  TIP3      640             0.0000000000
     19293       776  TIP3      H1             60.3207196636        3.4368722532       79.8583722744  TIP3      640             0.0000000000
     19294       776  TIP3      H2             59.9025297503        3.7188547705       81.2790523124  TIP3      640             0.0000000000
     19295       777  TIP3      OH2            64.9169248334        1.0009222255       78.9938029542  TIP3      641             0.0000000000
     19296       777  TIP3      H1             64.8411896928        0.0392079048       79.1410429172  TIP3      641             0.0000000000
     19297       777  TIP3      H2             64.3946041614        1.0823627252       78.1683387609  TIP3      641             0.0000000000
     19298       778  TIP3      OH2            65.6005634442        1.6697926044       81.5033355522  TIP3      642             0.0000000000
     19299       778  TIP3      H1             65.6576984322        1.6423025076       80.5214271806  TIP3      642             0.0000000000
     19300       778  TIP3      H2             65.0229644623        2.4303352257       81.6384314433  TIP3      642             0.0000000000
     19301       779  TIP3      OH2            56.4937964081       18.2068755111       68.6859506198  TIP3      643             0.0000000000
     19302       779  TIP3      H1             55.8190875144       17.6474841902       68.2398039843  TIP3      643             0.0000000000
     19303       779  TIP3      H2             56.8099542776       17.6000143718       69.3928666162  TIP3      643             0.0000000000
     19304       780  TIP3      OH2            57.5031748015       16.5619868615       70.6077848532  TIP3      644             0.0000000000
     19305       780  TIP3      H1             56.9238214221       16.1523580175       71.2802350450  TIP3      644             0.0000000000
     19306       780  TIP3      H2             58.2071199970       16.8945983939       71.2068818091  TIP3      644             0.0000000000
     19307       781  TIP3      OH2            57.4296926959        9.8682561414       73.4046546403  TIP3      645             0.0000000000
     19308       781  TIP3      H1             57.3702806382        9.6593462190       72.4445895109  TIP3      645             0.0000000000
     19309       781  TIP3      H2             58.3129509895        9.4781731368       73.5989237445  TIP3      645             0.0000000000
     19310       782  TIP3      OH2            57.8714901975        5.0997267449       79.0955677220  TIP3      646             0.0000000000
     19311       782  TIP3      H1             58.6920412113        4.8553276957       79.5731887675  TIP3      646             0.0000000000
     19312       782  TIP3      H2             57.3190931492        4.3046766053       79.2559958757  TIP3      646             0.0000000000
     19313       783  TIP3      OH2            58.5445788221        3.2596993880       72.3035435047  TIP3      647             0.0000000000
     19314       783  TIP3      H1             58.9650479843        2.3895644750       72.1284694928  TIP3      647             0.0000000000
     19315       783  TIP3      H2             59.3161410221        3.8375150588       72.4635514831  TIP3      647             0.0000000000
     19316       784  TIP3      OH2            56.9735390282        6.1368585682       73.0641765413  TIP3      648             0.0000000000
     19317       784  TIP3      H1             57.5584181090        5.7542875973       72.3972083270  TIP3      648             0.0000000000
     19318       784  TIP3      H2             57.3491609271        7.0243995679       73.1371421403  TIP3      648             0.0000000000
     19319       785  TIP3      OH2            57.0225193369        2.7701524948       67.1629600649  TIP3      649             0.0000000000
     19320       785  TIP3      H1             56.0543999565        2.7768408981       67.1658278304  TIP3      649             0.0000000000
     19321       785  TIP3      H2             57.2244911924        3.6005797806       66.6679895531  TIP3      649             0.0000000000
     19322       786  TIP3      OH2            56.5720711855        0.9915324123       75.1987039643  TIP3      650             0.0000000000
     19323       786  TIP3      H1             56.7095329646        1.5731212374       75.9500605694  TIP3      650             0.0000000000
     19324       786  TIP3      H2             56.3513666542        1.6567952626       74.5062097930  TIP3      650             0.0000000000
     19325       787  TIP3      OH2            59.4567333251       14.1713362189       79.4698744738  TIP3      651             0.0000000000
     19326       787  TIP3      H1             58.6223364927       14.5911093493       79.2002307302  TIP3      651             0.0000000000
     19327       787  TIP3      H2             59.2399497721       13.8906553400       80.3649214899  TIP3      651             0.0000000000
     19328       788  TIP3      OH2            62.2019387776       15.8383500016       76.4485009563  TIP3      652             0.0000000000
     19329       788  TIP3      H1             62.0450458342       16.6325689551       75.8838804832  TIP3      652             0.0000000000
     19330       788  TIP3      H2             63.1252358446       15.6377696246       76.1839961787  TIP3      652             0.0000000000
     19331       789  TIP3      OH2            59.5295286969       18.5926767565       75.8556289773  TIP3      653             0.0000000000
     19332       789  TIP3      H1             58.7088332648       19.0852383902       75.6282741784  TIP3      653             0.0000000000
     19333       789  TIP3      H2             59.4429819325       18.4767299124       76.8133038839  TIP3      653             0.0000000000
     19334       790  TIP3      OH2            61.8142149540       17.9722252110       74.8773429624  TIP3      654             0.0000000000
     19335       790  TIP3      H1             60.8834734509       18.1775462017       75.1347447871  TIP3      654             0.0000000000
     19336       790  TIP3      H2             61.9864418929       18.7143066162       74.2554554002  TIP3      654             0.0000000000
     19337       791  TIP3      OH2            59.0968599037       17.2035342527       72.8717895932  TIP3      655             0.0000000000
     19338       791  TIP3      H1             58.8492107798       16.7599536123       73.7121133627  TIP3      655             0.0000000000
     19339       791  TIP3      H2             59.9524883023       16.7570951834       72.6690388861  TIP3      655             0.0000000000
     19340       792  TIP3      OH2            61.2588456400       16.0250473050       71.4949868123  TIP3      656             0.0000000000
     19341       792  TIP3      H1             61.1303846604       15.0935556856       71.7936461946  TIP3      656             0.0000000000
     19342       792  TIP3      H2             62.1819439753       16.1829679864       71.7975448200  TIP3      656             0.0000000000
     19343       793  TIP3      OH2            63.7086288815       16.3546958100       72.4198333726  TIP3      657             0.0000000000
     19344       793  TIP3      H1             64.3045273247       15.6537080462       72.1187335699  TIP3      657             0.0000000000
     19345       793  TIP3      H2             63.7539755572       16.2679686303       73.3823887784  TIP3      657             0.0000000000
     19346       794  TIP3      OH2            59.2448762118        0.7973578825       69.3062568805  TIP3      658             0.0000000000
     19347       794  TIP3      H1             58.3814815441        0.9424482809       68.8729937177  TIP3      658             0.0000000000
     19348       794  TIP3      H2             59.7630531130        0.3606579289       68.5845783273  TIP3      658             0.0000000000
     19349       795  TIP3      OH2            58.1590885977        1.0080921014       65.0987613083  TIP3      659             0.0000000000
     19350       795  TIP3      H1             58.8326768836        1.4639759773       64.5450292161  TIP3      659             0.0000000000
     19351       795  TIP3      H2             57.8888251383        1.7010156190       65.7353798968  TIP3      659             0.0000000000
     19352       796  TIP3      OH2            63.6836721083        0.4819065720       69.8464866718  TIP3      660             0.0000000000
     19353       796  TIP3      H1             64.1607806596        0.3856512312       69.0191531678  TIP3      660             0.0000000000
     19354       796  TIP3      H2             63.8205765435       -0.4265668358       70.2108089978  TIP3      660             0.0000000000
     19355       797  TIP3      OH2            57.9830345107       16.4748055329       66.2128030804  TIP3      661             0.0000000000
     19356       797  TIP3      H1             57.7118292905       16.9313631890       65.4082956977  TIP3      661             0.0000000000
     19357       797  TIP3      H2             58.6458583456       17.0862375145       66.5737988561  TIP3      661             0.0000000000
     19358       798  TIP3      OH2            59.8090046922        2.4814770909       63.6397204451  TIP3      662             0.0000000000
     19359       798  TIP3      H1             59.8453015314        2.4642219460       62.6574868850  TIP3      662             0.0000000000
     19360       798  TIP3      H2             60.7011888640        2.8338701770       63.8266859288  TIP3      662             0.0000000000
     19361       799  TIP3      OH2            64.3271386620        2.2686280153       66.4774873524  TIP3      663             0.0000000000
     19362       799  TIP3      H1             64.6643188809        1.3720343137       66.3522840774  TIP3      663             0.0000000000
     19363       799  TIP3      H2             65.0870129720        2.7443153805       66.8653727513  TIP3      663             0.0000000000
     19364       800  TIP3      OH2            59.1084281698        1.3622054225       78.8760910866  TIP3      664             0.0000000000
     19365       800  TIP3      H1             58.6198431146        0.5837625198       78.5426274167  TIP3      664             0.0000000000
     19366       800  TIP3      H2             59.7132266664        0.9472830774       79.5298190003  TIP3      664             0.0000000000
     19367       801  TIP3      OH2            61.2730015750       66.5748178577       80.5472131569  TIP3      665             0.0000000000
     19368       801  TIP3      H1             62.1616410982       66.6356275049       80.1704020654  TIP3      665             0.0000000000
     19369       801  TIP3      H2             61.2985588162       65.7115815523       80.9907973809  TIP3      665             0.0000000000
     19370       802  TIP3      OH2            12.4615570919       28.7775907200       69.2819661324  TIP3      666             0.0000000000
     19371       802  TIP3      H1             12.4481261980       29.7217517770       69.5418929820  TIP3      666             0.0000000000
     19372       802  TIP3      H2             11.8137503382       28.8193164406       68.5654813796  TIP3      666             0.0000000000
     19373       803  TIP3      OH2            11.1159026419       27.5811262759       72.6552441372  TIP3      667             0.0000000000
     19374       803  TIP3      H1             11.0093332048       27.0383718447       73.4548411984  TIP3      667             0.0000000000
     19375       803  TIP3      H2             10.4802697223       27.1515532557       72.0550079933  TIP3      667             0.0000000000
     19376       804  TIP3      OH2             3.5956584618       27.6841110865       74.0217574357  TIP3      668             0.0000000000
     19377       804  TIP3      H1              3.4375901816       26.8855479372       74.5565007719  TIP3      668             0.0000000000
     19378       804  TIP3      H2              3.8954657000       28.2798588183       74.7384628590  TIP3      668             0.0000000000
     19379       805  TIP3      OH2            14.1604026168       30.9166971627       71.4483268411  TIP3      669             0.0000000000
     19380       805  TIP3      H1             14.3577732035       30.1004524089       71.9210557148  TIP3      669             0.0000000000
     19381       805  TIP3      H2             14.4121612581       31.5876902970       72.1017542456  TIP3      669             0.0000000000
     19382       806  TIP3      OH2             3.7208832946       32.0839962736       72.7720815031  TIP3      670             0.0000000000
     19383       806  TIP3      H1              3.7431311255       31.2413300178       72.2460805909  TIP3      670             0.0000000000
     19384       806  TIP3      H2              4.5733917489       31.9653413083       73.2196865016  TIP3      670             0.0000000000
     19385       807  TIP3      OH2             1.2059162276       25.8800414142       68.0344473502  TIP3      671             0.0000000000
     19386       807  TIP3      H1              0.7815249624       26.7484521139       67.9368143990  TIP3      671             0.0000000000
     19387       807  TIP3      H2              0.4755115524       25.3023609423       67.7179755777  TIP3      671             0.0000000000
     19388       808  TIP3      OH2             1.1376565062       27.7727169757       70.7058303766  TIP3      672             0.0000000000
     19389       808  TIP3      H1              1.2737428660       26.8002744029       70.7278476027  TIP3      672             0.0000000000
     19390       808  TIP3      H2              1.8524257238       28.0687344285       70.1172304004  TIP3      672             0.0000000000
     19391       809  TIP3      OH2            11.7860035540       36.2191825414       71.3315065927  TIP3      673             0.0000000000
     19392       809  TIP3      H1             12.5198153541       35.6989998618       70.9277707915  TIP3      673             0.0000000000
     19393       809  TIP3      H2             11.3366758617       35.5047136738       71.8043895470  TIP3      673             0.0000000000
     19394       810  TIP3      OH2             9.4888132830       30.7255399906       73.3287057998  TIP3      674             0.0000000000
     19395       810  TIP3      H1              9.8609497167       30.1865081464       72.6060358688  TIP3      674             0.0000000000
     19396       810  TIP3      H2             10.2210243230       31.3522605025       73.4710919015  TIP3      674             0.0000000000
     19397       811  TIP3      OH2            17.8532994794       21.7486516780       73.6598063204  TIP3      675             0.0000000000
     19398       811  TIP3      H1             18.0917490136       22.2875672816       74.4435537917  TIP3      675             0.0000000000
     19399       811  TIP3      H2             18.6526544324       21.8902357965       73.1163192010  TIP3      675             0.0000000000
     19400       812  TIP3      OH2            12.6918366219       24.9851777797       73.9245450337  TIP3      676             0.0000000000
     19401       812  TIP3      H1             12.7463292808       24.0667894743       74.2349524771  TIP3      676             0.0000000000
     19402       812  TIP3      H2             12.5625428532       24.8246327021       72.9696060580  TIP3      676             0.0000000000
     19403       813  TIP3      OH2             5.3532274730       22.7185340595       70.5241180770  TIP3      677             0.0000000000
     19404       813  TIP3      H1              5.6418482917       23.5452345235       70.0847541148  TIP3      677             0.0000000000
     19405       813  TIP3      H2              5.3080643879       22.1128791835       69.7590260657  TIP3      677             0.0000000000
     19406       814  TIP3      OH2            13.4418547230       22.5974135826       69.7042753855  TIP3      678             0.0000000000
     19407       814  TIP3      H1             13.8970825503       22.4336266942       70.5479899660  TIP3      678             0.0000000000
     19408       814  TIP3      H2             14.2257806548       22.6103679788       69.1506223341  TIP3      678             0.0000000000
     19409       815  TIP3      OH2             2.1547152562       25.0871773828       71.4012699425  TIP3      679             0.0000000000
     19410       815  TIP3      H1              2.8580465809       24.5884739328       71.8589757299  TIP3      679             0.0000000000
     19411       815  TIP3      H2              2.4815112162       24.9439641194       70.4951921180  TIP3      679             0.0000000000
     19412       816  TIP3      OH2             6.8988951710       26.6472304555       70.8511446644  TIP3      680             0.0000000000
     19413       816  TIP3      H1              7.8212395338       26.3186298263       70.9226809994  TIP3      680             0.0000000000
     19414       816  TIP3      H2              6.5156171544       26.0369627672       70.1836256208  TIP3      680             0.0000000000
     19415       817  TIP3      OH2            18.0658267400       23.2981638949       76.0294645219  TIP3      681             0.0000000000
     19416       817  TIP3      H1             17.7549209172       24.1163596228       75.5886169100  TIP3      681             0.0000000000
     19417       817  TIP3      H2             18.1891411502       23.6498993747       76.9302170644  TIP3      681             0.0000000000
     19418       818  TIP3      OH2             4.5547115531       21.8342207245       74.8762356282  TIP3      682             0.0000000000
     19419       818  TIP3      H1              4.1465802365       22.3560261693       74.1670095051  TIP3      682             0.0000000000
     19420       818  TIP3      H2              3.9256082093       22.0006104639       75.6240648512  TIP3      682             0.0000000000
     19421       819  TIP3      OH2            11.8050298166       31.4318321540       68.5250894310  TIP3      683             0.0000000000
     19422       819  TIP3      H1             11.5603172587       31.4004075318       67.5741823632  TIP3      683             0.0000000000
     19423       819  TIP3      H2             11.5067239179       32.3291129591       68.7719583511  TIP3      683             0.0000000000
     19424       820  TIP3      OH2             6.8034135632       29.6560542281       74.4041311355  TIP3      684             0.0000000000
     19425       820  TIP3      H1              6.2435981558       30.3358039347       74.8412541117  TIP3      684             0.0000000000
     19426       820  TIP3      H2              7.4222724294       30.1968116299       73.8900181531  TIP3      684             0.0000000000
     19427       821  TIP3      OH2            15.5197166738       22.7631402485       71.5589243453  TIP3      685             0.0000000000
     19428       821  TIP3      H1             16.3245705503       22.2241484051       71.5196028278  TIP3      685             0.0000000000
     19429       821  TIP3      H2             15.8094864211       23.4279526690       72.2220032291  TIP3      685             0.0000000000
     19430       822  TIP3      OH2             4.2708186942       23.7498897886       72.7393564596  TIP3      686             0.0000000000
     19431       822  TIP3      H1              4.9376119180       24.3816139120       73.0836828367  TIP3      686             0.0000000000
     19432       822  TIP3      H2              4.7422462373       23.3712301793       71.9500119204  TIP3      686             0.0000000000
     19433       823  TIP3      OH2             5.4291304039       31.7242942463       75.5019128257  TIP3      687             0.0000000000
     19434       823  TIP3      H1              5.2263062009       32.6559889097       75.3282287795  TIP3      687             0.0000000000
     19435       823  TIP3      H2              4.6772039727       31.4759360921       76.0835500031  TIP3      687             0.0000000000
     19436       824  TIP3      OH2             1.2439015131       31.4786290977       67.0715631103  TIP3      688             0.0000000000
     19437       824  TIP3      H1              0.4872854269       31.0134230670       66.6314812412  TIP3      688             0.0000000000
     19438       824  TIP3      H2              0.7997601450       31.9675749460       67.7724946729  TIP3      688             0.0000000000
     19439       825  TIP3      OH2            15.1084078709       32.7650983294       73.3864865305  TIP3      689             0.0000000000
     19440       825  TIP3      H1             14.1602619265       32.9901881669       73.5139462258  TIP3      689             0.0000000000
     19441       825  TIP3      H2             15.3614155982       33.5749601325       72.9089209596  TIP3      689             0.0000000000
     19442       826  TIP3      OH2            14.9348025708       20.9636829732       74.7493614046  TIP3      690             0.0000000000
     19443       826  TIP3      H1             14.2255406157       21.2402551005       74.1267335469  TIP3      690             0.0000000000
     19444       826  TIP3      H2             15.7361788474       21.2172171829       74.2621104051  TIP3      690             0.0000000000
     19445       827  TIP3      OH2             7.9920756200       18.9987675908       72.3732971310  TIP3      691             0.0000000000
     19446       827  TIP3      H1              7.4990007367       18.2266053648       72.0690246703  TIP3      691             0.0000000000
     19447       827  TIP3      H2              7.2241709212       19.5989387602       72.5561446703  TIP3      691             0.0000000000
     19448       828  TIP3      OH2            13.6253104764       34.6880988498       70.0416745125  TIP3      692             0.0000000000
     19449       828  TIP3      H1             13.7685540186       33.9424797053       69.4337775344  TIP3      692             0.0000000000
     19450       828  TIP3      H2             14.4532106389       35.2164387621       69.8977514499  TIP3      692             0.0000000000
     19451       829  TIP3      OH2            14.9356661148       32.3270083399       68.2698921181  TIP3      693             0.0000000000
     19452       829  TIP3      H1             14.6782362568       31.5878533635       67.6835910409  TIP3      693             0.0000000000
     19453       829  TIP3      H2             14.6207010368       31.9724917436       69.1227165670  TIP3      693             0.0000000000
     19454       830  TIP3      OH2            16.1709484597       31.0854945818       77.0987427331  TIP3      694             0.0000000000
     19455       830  TIP3      H1             16.2168727450       30.3910857873       76.4051281391  TIP3      694             0.0000000000
     19456       830  TIP3      H2             16.3380649959       31.8832040514       76.5504779724  TIP3      694             0.0000000000
     19457       831  TIP3      OH2            10.6928677281       27.7479840484       66.3813478031  TIP3      695             0.0000000000
     19458       831  TIP3      H1             10.5202544535       28.4504839953       65.7361573151  TIP3      695             0.0000000000
     19459       831  TIP3      H2             11.3951667252       27.2723246309       65.9002638624  TIP3      695             0.0000000000
     19460       832  TIP3      OH2            18.0362746361       27.4730618753       75.0393711255  TIP3      696             0.0000000000
     19461       832  TIP3      H1             17.4296790513       28.2458993954       75.0515363902  TIP3      696             0.0000000000
     19462       832  TIP3      H2             18.7726093707       27.8439830683       74.5202858202  TIP3      696             0.0000000000
     19463       833  TIP3      OH2            14.9522726895       28.1639865744       68.0450475131  TIP3      697             0.0000000000
     19464       833  TIP3      H1             14.0792183779       28.2080160326       68.4835521632  TIP3      697             0.0000000000
     19465       833  TIP3      H2             15.3529632425       27.3891820166       68.4998974903  TIP3      697             0.0000000000
     19466       834  TIP3      OH2            13.7978789699       26.7122960317       77.2676568758  TIP3      698             0.0000000000
     19467       834  TIP3      H1             14.3589858939       27.4869930360       77.3809815752  TIP3      698             0.0000000000
     19468       834  TIP3      H2             13.0938357037       27.0979629931       76.7124260036  TIP3      698             0.0000000000
     19469       835  TIP3      OH2             5.8885376655       28.8189145499       69.8205885848  TIP3      699             0.0000000000
     19470       835  TIP3      H1              5.3077542987       28.4864915285       69.1074503850  TIP3      699             0.0000000000
     19471       835  TIP3      H2              6.2813713022       27.9872891660       70.1593460776  TIP3      699             0.0000000000
     19472       836  TIP3      OH2             7.0772859171       32.1217156380       72.1530289207  TIP3      700             0.0000000000
     19473       836  TIP3      H1              6.8463529822       32.1252376067       71.2006999822  TIP3      700             0.0000000000
     19474       836  TIP3      H2              7.8570843984       31.5574827155       72.2116205864  TIP3      700             0.0000000000
     19475       837  TIP3      OH2             6.2936549288       27.2672334048       73.3405201798  TIP3      701             0.0000000000
     19476       837  TIP3      H1              6.4269415142       27.3260142420       72.3680063377  TIP3      701             0.0000000000
     19477       837  TIP3      H2              6.2355468584       28.2063695961       73.6292973671  TIP3      701             0.0000000000
     19478       838  TIP3      OH2            12.5804878026       33.4245606002       73.9931840592  TIP3      702             0.0000000000
     19479       838  TIP3      H1             12.4387751434       34.2473649280       74.5001996848  TIP3      702             0.0000000000
     19480       838  TIP3      H2             12.2322642234       32.7506963190       74.5998495438  TIP3      702             0.0000000000
     19481       839  TIP3      OH2             6.8654494987       31.7318843562       77.9191197609  TIP3      703             0.0000000000
     19482       839  TIP3      H1              6.2958352384       32.3205915747       78.4768722708  TIP3      703             0.0000000000
     19483       839  TIP3      H2              6.3581407916       31.7063930576       77.0868010084  TIP3      703             0.0000000000
     19484       840  TIP3      OH2            13.6262948862       26.8286348989       65.7504533839  TIP3      704             0.0000000000
     19485       840  TIP3      H1             14.1376148636       27.6382967287       65.8673458722  TIP3      704             0.0000000000
     19486       840  TIP3      H2             13.7500627583       26.7267613542       64.7645422208  TIP3      704             0.0000000000
     19487       841  TIP3      OH2             4.3654905453       28.3901825358       76.5491157188  TIP3      705             0.0000000000
     19488       841  TIP3      H1              4.3006864593       29.0761905483       77.2281529058  TIP3      705             0.0000000000
     19489       841  TIP3      H2              3.5014212819       27.9510497935       76.7075784979  TIP3      705             0.0000000000
     19490       842  TIP3      OH2            11.2057044069       34.1006192874       69.1812589494  TIP3      706             0.0000000000
     19491       842  TIP3      H1             12.0407515335       34.5033713607       69.5030165440  TIP3      706             0.0000000000
     19492       842  TIP3      H2             10.6502258095       34.8829552813       69.1213058248  TIP3      706             0.0000000000
     19493       843  TIP3      OH2             5.4798218575       33.7629110485       78.9623873085  TIP3      707             0.0000000000
     19494       843  TIP3      H1              5.3596463066       33.9606007532       78.0099542566  TIP3      707             0.0000000000
     19495       843  TIP3      H2              4.5493347126       33.8140029538       79.2467504722  TIP3      707             0.0000000000
     19496       844  TIP3      OH2            16.7584234232       19.3502233264       65.7555074306  TIP3      708             0.0000000000
     19497       844  TIP3      H1             16.2821691230       19.5337913820       64.9233914114  TIP3      708             0.0000000000
     19498       844  TIP3      H2             17.6699172562       19.4386048703       65.4085674654  TIP3      708             0.0000000000
     19499       845  TIP3      OH2             3.8887388459       27.9063439567       67.8851807444  TIP3      709             0.0000000000
     19500       845  TIP3      H1              3.8083619926       28.5862413346       67.1944471057  TIP3      709             0.0000000000
     19501       845  TIP3      H2              3.3188088345       27.2075651606       67.5295106389  TIP3      709             0.0000000000
     19502       846  TIP3      OH2             1.2038567996       30.3629281777       76.5058379947  TIP3      710             0.0000000000
     19503       846  TIP3      H1              0.7652080092       30.0359388497       75.7052620569  TIP3      710             0.0000000000
     19504       846  TIP3      H2              1.1554872547       29.5534338308       77.0505402847  TIP3      710             0.0000000000
     19505       847  TIP3      OH2             1.1877405155       33.0441843168       72.8230925018  TIP3      711             0.0000000000
     19506       847  TIP3      H1              2.1107761042       32.7132444740       72.7379582095  TIP3      711             0.0000000000
     19507       847  TIP3      H2              1.3314691956       33.6723029889       73.5661294026  TIP3      711             0.0000000000
     19508       848  TIP3      OH2            18.5947792463       33.7742989497       78.6436707906  TIP3      712             0.0000000000
     19509       848  TIP3      H1             18.5914682669       32.8646302188       78.9854722166  TIP3      712             0.0000000000
     19510       848  TIP3      H2             17.7351159209       34.1069966018       78.9943623254  TIP3      712             0.0000000000
     19511       849  TIP3      OH2             9.7113850716       33.0853887114       78.0883729906  TIP3      713             0.0000000000
     19512       849  TIP3      H1              9.8719407300       33.9956236335       78.4193946424  TIP3      713             0.0000000000
     19513       849  TIP3      H2              8.7916549816       32.9352438434       78.3412508469  TIP3      713             0.0000000000
     19514       850  TIP3      OH2            10.3625582312       36.8395769382       67.4437897705  TIP3      714             0.0000000000
     19515       850  TIP3      H1              9.6014806568       36.2381266566       67.4311347784  TIP3      714             0.0000000000
     19516       850  TIP3      H2             10.0463930664       37.5976693319       67.9676580510  TIP3      714             0.0000000000
     19517       851  TIP3      OH2             4.1996222873       35.6686695321       69.1529159678  TIP3      715             0.0000000000
     19518       851  TIP3      H1              4.1740365056       35.1912405331       70.0133034080  TIP3      715             0.0000000000
     19519       851  TIP3      H2              3.3976282603       35.3315654187       68.7229495597  TIP3      715             0.0000000000
     19520       852  TIP3      OH2            13.0929955566       36.2074247958       67.5491869166  TIP3      716             0.0000000000
     19521       852  TIP3      H1             12.1436670033       36.3995018505       67.3839825730  TIP3      716             0.0000000000
     19522       852  TIP3      H2             13.1223572750       35.2594674677       67.3613371910  TIP3      716             0.0000000000
     19523       853  TIP3      OH2            15.5993996991       24.7432734694       79.1907451470  TIP3      717             0.0000000000
     19524       853  TIP3      H1             15.1648133077       25.2145519362       78.4634701022  TIP3      717             0.0000000000
     19525       853  TIP3      H2             15.7022551840       23.8502711709       78.7959788347  TIP3      717             0.0000000000
     19526       854  TIP3      OH2             3.4478898744       31.5345639935       77.3882324154  TIP3      718             0.0000000000
     19527       854  TIP3      H1              3.5918298787       30.9859851341       78.2024684170  TIP3      718             0.0000000000
     19528       854  TIP3      H2              2.5717362777       31.1852724393       77.0807179601  TIP3      718             0.0000000000
     19529       855  TIP3      OH2             5.8275522909       20.4498067657       72.9806562376  TIP3      719             0.0000000000
     19530       855  TIP3      H1              4.9871756078       20.4852348478       72.4829887263  TIP3      719             0.0000000000
     19531       855  TIP3      H2              5.5531427699       20.9511440479       73.7824307989  TIP3      719             0.0000000000
     19532       856  TIP3      OH2            11.0181971456       19.7626035372       76.3447118101  TIP3      720             0.0000000000
     19533       856  TIP3      H1             11.3946017773       19.2050518387       77.0625489394  TIP3      720             0.0000000000
     19534       856  TIP3      H2             10.1017213982       19.8796800107       76.6332854974  TIP3      720             0.0000000000
     19535       857  TIP3      OH2            13.4362965684       23.9903528824       77.0506495479  TIP3      721             0.0000000000
     19536       857  TIP3      H1             12.9578451603       23.6546228736       77.8355371808  TIP3      721             0.0000000000
     19537       857  TIP3      H2             13.5059219754       24.9428715340       77.2623480279  TIP3      721             0.0000000000
     19538       858  TIP3      OH2             6.0417386533       24.9461984055       74.4790394515  TIP3      722             0.0000000000
     19539       858  TIP3      H1              5.2306501551       25.0890558315       74.9999287896  TIP3      722             0.0000000000
     19540       858  TIP3      H2              6.0568506295       25.8084877458       73.9982871562  TIP3      722             0.0000000000
     19541       859  TIP3      OH2             5.7719049547       25.0058957450       69.0876823853  TIP3      723             0.0000000000
     19542       859  TIP3      H1              4.7952152336       24.8642002274       69.0049875008  TIP3      723             0.0000000000
     19543       859  TIP3      H2              6.0899367569       25.1373767568       68.1667208366  TIP3      723             0.0000000000
     19544       860  TIP3      OH2            11.4892670039       25.5799114477       68.0972064607  TIP3      724             0.0000000000
     19545       860  TIP3      H1             11.1890323135       26.4014194498       67.6595199654  TIP3      724             0.0000000000
     19546       860  TIP3      H2             12.1044958671       25.1966266760       67.4503418013  TIP3      724             0.0000000000
     19547       861  TIP3      OH2            10.1981532463       26.1920084816       79.6237047906  TIP3      725             0.0000000000
     19548       861  TIP3      H1              9.8619156052       25.3353597625       79.9753490162  TIP3      725             0.0000000000
     19549       861  TIP3      H2             11.1297242019       26.1232897284       79.9092667879  TIP3      725             0.0000000000
     19550       862  TIP3      OH2            12.3844088680       25.3999225220       71.0514017677  TIP3      726             0.0000000000
     19551       862  TIP3      H1             12.3298873282       26.2817997553       70.6281416615  TIP3      726             0.0000000000
     19552       862  TIP3      H2             12.2520208728       24.8190931333       70.2812492370  TIP3      726             0.0000000000
     19553       863  TIP3      OH2             3.4070723341       25.1645021681       75.6367489103  TIP3      727             0.0000000000
     19554       863  TIP3      H1              3.1777726827       25.2513540430       76.5774822843  TIP3      727             0.0000000000
     19555       863  TIP3      H2              3.1877074867       24.2206334677       75.5199523482  TIP3      727             0.0000000000
     19556       864  TIP3      OH2             1.6694143961       22.1280640405       69.6125889614  TIP3      728             0.0000000000
     19557       864  TIP3      H1              1.2972906035       22.2280421677       70.5058832654  TIP3      728             0.0000000000
     19558       864  TIP3      H2              2.2536224673       21.3727472623       69.7635264990  TIP3      728             0.0000000000
     19559       865  TIP3      OH2             2.0323835415       22.9547395423       65.2769984823  TIP3      729             0.0000000000
     19560       865  TIP3      H1              2.4558769470       23.5476406952       64.6425252340  TIP3      729             0.0000000000
     19561       865  TIP3      H2              1.3389358825       23.5218582771       65.6224526351  TIP3      729             0.0000000000
     19562       866  TIP3      OH2            11.5356858010       27.0951115341       75.4596345328  TIP3      730             0.0000000000
     19563       866  TIP3      H1             12.1008443893       26.4752562570       74.9493377779  TIP3      730             0.0000000000
     19564       866  TIP3      H2             11.0364420532       26.4320799032       76.0045887895  TIP3      730             0.0000000000
     19565       867  TIP3      OH2             8.8371613997       22.5658389270       70.3440154629  TIP3      731             0.0000000000
     19566       867  TIP3      H1              7.9400242311       22.2967634589       70.5815899772  TIP3      731             0.0000000000
     19567       867  TIP3      H2              9.3636190147       21.8779836138       70.8200697745  TIP3      731             0.0000000000
     19568       868  TIP3      OH2             3.2266240173       24.2957650526       69.0855131656  TIP3      732             0.0000000000
     19569       868  TIP3      H1              2.5804407179       24.6803332375       68.4583627075  TIP3      732             0.0000000000
     19570       868  TIP3      H2              2.9555471438       23.3516502980       69.1244605292  TIP3      732             0.0000000000
     19571       869  TIP3      OH2             6.7019541266       25.2581646017       66.3677024560  TIP3      733             0.0000000000
     19572       869  TIP3      H1              7.2767339113       24.4996039936       66.5647414499  TIP3      733             0.0000000000
     19573       869  TIP3      H2              6.0600221170       24.9283012135       65.7283866328  TIP3      733             0.0000000000
     19574       870  TIP3      OH2            12.7755722979       21.8727817940       73.3782617518  TIP3      734             0.0000000000
     19575       870  TIP3      H1             11.9834231497       21.6116785049       73.8681488993  TIP3      734             0.0000000000
     19576       870  TIP3      H2             12.7028266275       21.3714906933       72.5482945166  TIP3      734             0.0000000000
     19577       871  TIP3      OH2             5.2531326286       25.1951089468       63.7364371179  TIP3      735             0.0000000000
     19578       871  TIP3      H1              4.4010738988       25.6496734713       63.6450142570  TIP3      735             0.0000000000
     19579       871  TIP3      H2              5.8725110585       25.9140416393       63.9079530672  TIP3      735             0.0000000000
     19580       872  TIP3      OH2            15.7714097008       37.4289057099       80.0930047793  TIP3      736             0.0000000000
     19581       872  TIP3      H1             16.2459092415       37.5741410000       79.2545820717  TIP3      736             0.0000000000
     19582       872  TIP3      H2             16.4647536972       37.7329425399       80.7080874150  TIP3      736             0.0000000000
     19583       873  TIP3      OH2             3.5503796056       29.8983211523       79.4430457417  TIP3      737             0.0000000000
     19584       873  TIP3      H1              4.1321481523       29.7800010868       80.2293726553  TIP3      737             0.0000000000
     19585       873  TIP3      H2              2.6584086312       29.8843510987       79.8566253050  TIP3      737             0.0000000000
     19586       874  TIP3      OH2             9.2486528007       25.5424084256       71.7339387217  TIP3      738             0.0000000000
     19587       874  TIP3      H1             10.1780374671       25.3831612458       71.4952783495  TIP3      738             0.0000000000
     19588       874  TIP3      H2              8.9329375371       24.6219144525       71.7410874216  TIP3      738             0.0000000000
     19589       875  TIP3      OH2             5.1374425187       21.2043985089       68.2685713228  TIP3      739             0.0000000000
     19590       875  TIP3      H1              4.5174818861       20.4883496793       68.4973157960  TIP3      739             0.0000000000
     19591       875  TIP3      H2              6.0011581370       20.7540119951       68.3763814072  TIP3      739             0.0000000000
     19592       876  TIP3      OH2             8.1930923197       23.5317295018       74.1673862728  TIP3      740             0.0000000000
     19593       876  TIP3      H1              7.3758259512       24.0883840365       74.1884041024  TIP3      740             0.0000000000
     19594       876  TIP3      H2              8.8064314069       24.0229910226       74.7233220465  TIP3      740             0.0000000000
     19595       877  TIP3      OH2             8.3185550355       29.6806586385       66.3109083797  TIP3      741             0.0000000000
     19596       877  TIP3      H1              8.5657016999       28.7958567710       66.6127547604  TIP3      741             0.0000000000
     19597       877  TIP3      H2              8.1849368605       30.1716683685       67.1590126675  TIP3      741             0.0000000000
     19598       878  TIP3      OH2            16.4815493697       29.5413994952       74.9571921056  TIP3      742             0.0000000000
     19599       878  TIP3      H1             16.9436368842       30.0822336058       74.2616357314  TIP3      742             0.0000000000
     19600       878  TIP3      H2             15.6411780352       29.3551731524       74.4982604694  TIP3      742             0.0000000000
     19601       879  TIP3      OH2            10.5174762101       30.3903937116       77.8187600126  TIP3      743             0.0000000000
     19602       879  TIP3      H1              9.9768365289       30.1625606138       78.5952457409  TIP3      743             0.0000000000
     19603       879  TIP3      H2             10.5014723702       31.3630280185       77.8740228034  TIP3      743             0.0000000000
     19604       880  TIP3      OH2            13.2756307577       24.2197024812       66.2088391682  TIP3      744             0.0000000000
     19605       880  TIP3      H1             14.1167173654       24.2061779364       66.7144499487  TIP3      744             0.0000000000
     19606       880  TIP3      H2             13.2919741764       25.1310703941       65.8498730275  TIP3      744             0.0000000000
     19607       881  TIP3      OH2             4.0582083134       29.6609322567       71.7170515202  TIP3      745             0.0000000000
     19608       881  TIP3      H1              4.6503080773       29.3684228225       70.9929118440  TIP3      745             0.0000000000
     19609       881  TIP3      H2              4.1761654132       28.9462569832       72.3706055332  TIP3      745             0.0000000000
     19610       882  TIP3      OH2            10.6262349733       31.2897746936       66.1067491820  TIP3      746             0.0000000000
     19611       882  TIP3      H1             10.2165704362       32.1412507067       65.8757395123  TIP3      746             0.0000000000
     19612       882  TIP3      H2              9.9276369987       30.6282756047       65.9453117165  TIP3      746             0.0000000000
     19613       883  TIP3      OH2             1.7150157923       27.6807682570       77.1977242857  TIP3      747             0.0000000000
     19614       883  TIP3      H1              1.7048982721       27.4885720703       78.1597797294  TIP3      747             0.0000000000
     19615       883  TIP3      H2              0.8022657114       27.3944754136       76.9811379031  TIP3      747             0.0000000000
     19616       884  TIP3      OH2             8.0123172526       27.4149861764       78.7745071441  TIP3      748             0.0000000000
     19617       884  TIP3      H1              7.6212681048       26.5621530078       78.5343977464  TIP3      748             0.0000000000
     19618       884  TIP3      H2              8.9291452643       27.1285956976       79.0306244038  TIP3      748             0.0000000000
     19619       885  TIP3      OH2            12.9367613827       32.6347775168       77.6811750457  TIP3      749             0.0000000000
     19620       885  TIP3      H1             12.1097852990       32.9787770490       77.3102793554  TIP3      749             0.0000000000
     19621       885  TIP3      H2             12.9516022994       33.1899019025       78.4892472797  TIP3      749             0.0000000000
     19622       886  TIP3      OH2            17.8764955524       25.2106101769       66.2886738511  TIP3      750             0.0000000000
     19623       886  TIP3      H1             17.9361693501       24.6248691884       65.5114402223  TIP3      750             0.0000000000
     19624       886  TIP3      H2             17.5886780953       26.0322162377       65.8551013376  TIP3      750             0.0000000000
     19625       887  TIP3      OH2            18.6789847657       30.9551885654       78.4491136489  TIP3      751             0.0000000000
     19626       887  TIP3      H1             17.7897334810       30.9820883335       78.0351203946  TIP3      751             0.0000000000
     19627       887  TIP3      H2             19.2443137890       30.8310626101       77.6548196964  TIP3      751             0.0000000000
     19628       888  TIP3      OH2            16.0687297347       33.7122624487       66.0234640523  TIP3      752             0.0000000000
     19629       888  TIP3      H1             15.9913955167       33.1989759535       66.8520666796  TIP3      752             0.0000000000
     19630       888  TIP3      H2             15.2643383324       33.4038841202       65.5630933834  TIP3      752             0.0000000000
     19631       889  TIP3      OH2            14.1248460667       28.5195555634       73.2295592902  TIP3      753             0.0000000000
     19632       889  TIP3      H1             13.1757043929       28.3706644387       73.0512427416  TIP3      753             0.0000000000
     19633       889  TIP3      H2             14.5227852897       27.7403245286       72.7952812348  TIP3      753             0.0000000000
     19634       890  TIP3      OH2             6.3331736587       32.8988766637       69.5787212485  TIP3      754             0.0000000000
     19635       890  TIP3      H1              6.7284057824       33.6763169102       69.1240663597  TIP3      754             0.0000000000
     19636       890  TIP3      H2              5.4041697984       33.0245394568       69.3419808396  TIP3      754             0.0000000000
     19637       891  TIP3      OH2             1.6351492722       27.6690651765       64.7247092435  TIP3      755             0.0000000000
     19638       891  TIP3      H1              2.1833388227       28.4552286762       64.6013891191  TIP3      755             0.0000000000
     19639       891  TIP3      H2              0.8033050970       27.9203006969       64.2395357431  TIP3      755             0.0000000000
     19640       892  TIP3      OH2             7.7486229913       30.6539027449       68.7772369511  TIP3      756             0.0000000000
     19641       892  TIP3      H1              7.2889600085       31.4604141243       69.0790579746  TIP3      756             0.0000000000
     19642       892  TIP3      H2              7.2601954173       29.9414706606       69.2322309449  TIP3      756             0.0000000000
     19643       893  TIP3      OH2             8.2100636354       34.6846227779       75.7838336323  TIP3      757             0.0000000000
     19644       893  TIP3      H1              8.9505485256       35.2345784340       75.4641230844  TIP3      757             0.0000000000
     19645       893  TIP3      H2              8.6079612057       34.2591009323       76.5574332444  TIP3      757             0.0000000000
     19646       894  TIP3      OH2             6.6897854842       35.2380160812       68.3521750430  TIP3      758             0.0000000000
     19647       894  TIP3      H1              5.7319191469       35.4220264198       68.4682237776  TIP3      758             0.0000000000
     19648       894  TIP3      H2              7.0387303830       36.1000237217       68.6336041528  TIP3      758             0.0000000000
     19649       895  TIP3      OH2            11.9585828503       30.8204770124       74.9856166411  TIP3      759             0.0000000000
     19650       895  TIP3      H1             12.1788847716       30.7679014539       75.9342183071  TIP3      759             0.0000000000
     19651       895  TIP3      H2             12.7089993362       30.3433312530       74.5940204720  TIP3      759             0.0000000000
     19652       896  TIP3      OH2            13.6026471489       31.7626620495       64.2026925763  TIP3      760             0.0000000000
     19653       896  TIP3      H1             13.6504327258       31.1091862028       64.9217382599  TIP3      760             0.0000000000
     19654       896  TIP3      H2             13.6526020817       31.1958965615       63.4101390025  TIP3      760             0.0000000000
     19655       897  TIP3      OH2            14.7245060892       35.3248647799       77.2898792394  TIP3      761             0.0000000000
     19656       897  TIP3      H1             13.8710437441       34.9415507599       77.0273288925  TIP3      761             0.0000000000
     19657       897  TIP3      H2             14.8435112482       36.0014778106       76.5736985443  TIP3      761             0.0000000000
     19658       898  TIP3      OH2             2.6975229978       22.4797182738       76.7800200749  TIP3      762             0.0000000000
     19659       898  TIP3      H1              2.3081057248       23.1918287438       77.3406806249  TIP3      762             0.0000000000
     19660       898  TIP3      H2              2.1078319262       21.7472483643       77.0502766849  TIP3      762             0.0000000000
     19661       899  TIP3      OH2            14.8895070238       30.2222105918       66.3789374235  TIP3      763             0.0000000000
     19662       899  TIP3      H1             14.8465683483       29.4298627885       66.9705838765  TIP3      763             0.0000000000
     19663       899  TIP3      H2             15.8409531308       30.2109770600       66.1321251409  TIP3      763             0.0000000000
     19664       900  TIP3      OH2             2.2656428084       34.1778727896       75.1574384421  TIP3      764             0.0000000000
     19665       900  TIP3      H1              3.0970697824       33.7020762222       75.3068384548  TIP3      764             0.0000000000
     19666       900  TIP3      H2              2.4158146919       34.9363468829       75.7451882789  TIP3      764             0.0000000000
     19667       901  TIP3      OH2             2.9952995618       30.0891400096       65.4612877637  TIP3      765             0.0000000000
     19668       901  TIP3      H1              2.3856881341       30.3280160108       66.1859435061  TIP3      765             0.0000000000
     19669       901  TIP3      H2              3.0904892705       30.9718800628       65.0502087170  TIP3      765             0.0000000000
     19670       902  TIP3      OH2            11.2684276706       22.4527273445       76.1042665487  TIP3      766             0.0000000000
     19671       902  TIP3      H1             12.2006671213       22.6984949344       76.2048889833  TIP3      766             0.0000000000
     19672       902  TIP3      H2             11.2615191162       21.4959143657       76.3141642807  TIP3      766             0.0000000000
     19673       903  TIP3      OH2            11.8412425130       22.3548328042       67.4235603448  TIP3      767             0.0000000000
     19674       903  TIP3      H1             12.4007176474       23.0811494825       67.0616660276  TIP3      767             0.0000000000
     19675       903  TIP3      H2             12.5377870065       21.8200053315       67.8467085193  TIP3      767             0.0000000000
     19676       904  TIP3      OH2            10.1673390861       34.2024632633       65.1479881593  TIP3      768             0.0000000000
     19677       904  TIP3      H1              9.2505421211       34.3169156407       65.4540438184  TIP3      768             0.0000000000
     19678       904  TIP3      H2             10.1017256286       34.1986346353       64.1906949784  TIP3      768             0.0000000000
     19679       905  TIP3      OH2             8.8319441515       23.5797146793       67.6865098642  TIP3      769             0.0000000000
     19680       905  TIP3      H1              9.5559270648       24.2170300808       67.8125670439  TIP3      769             0.0000000000
     19681       905  TIP3      H2              8.7029116008       23.2376966067       68.5949148518  TIP3      769             0.0000000000
     19682       906  TIP3      OH2            10.3418665351       25.0764517571       76.9321589308  TIP3      770             0.0000000000
     19683       906  TIP3      H1             10.3558354811       25.2387906265       77.8954935976  TIP3      770             0.0000000000
     19684       906  TIP3      H2             10.6486143538       24.1424407280       76.8474527939  TIP3      770             0.0000000000
     19685       907  TIP3      OH2             9.8748522629       20.7132197314       68.2589515047  TIP3      771             0.0000000000
     19686       907  TIP3      H1              9.7323062479       21.4108189529       68.9272768002  TIP3      771             0.0000000000
     19687       907  TIP3      H2             10.5723534730       21.1747744380       67.7375803652  TIP3      771             0.0000000000
     19688       908  TIP3      OH2             7.6446314916       35.1650197518       65.8794635470  TIP3      772             0.0000000000
     19689       908  TIP3      H1              7.1361654788       35.8879366462       65.5038571985  TIP3      772             0.0000000000
     19690       908  TIP3      H2              7.1808412570       35.0272872179       66.7338962949  TIP3      772             0.0000000000
     19691       909  TIP3      OH2            16.0331690407       22.4570429019       77.6757174441  TIP3      773             0.0000000000
     19692       909  TIP3      H1             15.1639197106       22.1533145416       77.3756083725  TIP3      773             0.0000000000
     19693       909  TIP3      H2             16.5339799766       22.5326603595       76.8412417244  TIP3      773             0.0000000000
     19694       910  TIP3      OH2            14.9966284221       26.1082011261       71.6579158771  TIP3      774             0.0000000000
     19695       910  TIP3      H1             14.1648483365       25.6005680571       71.5673349109  TIP3      774             0.0000000000
     19696       910  TIP3      H2             15.5438983556       25.5576103913       72.2555715485  TIP3      774             0.0000000000
     19697       911  TIP3      OH2             1.9663484327       25.4137525568       63.2571416030  TIP3      775             0.0000000000
     19698       911  TIP3      H1              1.7562878952       26.0574640293       63.9681540523  TIP3      775             0.0000000000
     19699       911  TIP3      H2              1.4483386621       25.8206579331       62.5334489512  TIP3      775             0.0000000000
     19700       912  TIP3      OH2            15.4688598425       35.5918629083       73.2654046259  TIP3      776             0.0000000000
     19701       912  TIP3      H1             15.4752809830       36.2069722793       72.5106326121  TIP3      776             0.0000000000
     19702       912  TIP3      H2             16.4200925036       35.5571179206       73.4752006098  TIP3      776             0.0000000000
     19703       913  TIP3      OH2             3.0144461549       19.7047493723       72.3568412961  TIP3      777             0.0000000000
     19704       913  TIP3      H1              3.0073826022       19.4959092171       71.4059009917  TIP3      777             0.0000000000
     19705       913  TIP3      H2              2.7744759011       18.8275268461       72.7304750641  TIP3      777             0.0000000000
     19706       914  TIP3      OH2             2.2582216235       33.4065146495       69.0892457166  TIP3      778             0.0000000000
     19707       914  TIP3      H1              1.8713865488       33.7840993249       68.2871689775  TIP3      778             0.0000000000
     19708       914  TIP3      H2              2.8617625256       32.7345326625       68.7466577715  TIP3      778             0.0000000000
     19709       915  TIP3      OH2             1.1506508608       35.9505549604       78.9267171673  TIP3      779             0.0000000000
     19710       915  TIP3      H1              1.6775755886       36.4181340509       79.5881370217  TIP3      779             0.0000000000
     19711       915  TIP3      H2              1.3409238553       35.0414600607       79.2282465279  TIP3      779             0.0000000000
     19712       916  TIP3      OH2             6.2563344075       34.8508522645       81.5010941382  TIP3      780             0.0000000000
     19713       916  TIP3      H1              7.1845045563       34.5808608356       81.5388623043  TIP3      780             0.0000000000
     19714       916  TIP3      H2              6.0035021683       34.4923877494       80.6333291899  TIP3      780             0.0000000000
     19715       917  TIP3      OH2            12.3564543713       33.9980505181       79.9645407105  TIP3      781             0.0000000000
     19716       917  TIP3      H1             12.0841394697       33.1076427618       80.3053180258  TIP3      781             0.0000000000
     19717       917  TIP3      H2             13.2245125044       34.0635658988       80.4188513720  TIP3      781             0.0000000000
     19718       918  TIP3      OH2             1.1646894564       30.1494003257       80.4745228300  TIP3      782             0.0000000000
     19719       918  TIP3      H1              0.9243096682       29.2162457065       80.5326730903  TIP3      782             0.0000000000
     19720       918  TIP3      H2              0.3281331907       30.4793079036       80.0978002663  TIP3      782             0.0000000000
     19721       919  TIP3      OH2             8.0448180157       29.9773289084       79.5110588490  TIP3      783             0.0000000000
     19722       919  TIP3      H1              7.6574315544       30.5536604447       78.8109978578  TIP3      783             0.0000000000
     19723       919  TIP3      H2              7.8558288595       29.0575597788       79.1990869170  TIP3      783             0.0000000000
     19724       920  TIP3      OH2            13.7658620032       29.9694426858       77.4646785778  TIP3      784             0.0000000000
     19725       920  TIP3      H1             14.6584667122       30.3851665479       77.4976627734  TIP3      784             0.0000000000
     19726       920  TIP3      H2             13.2576754684       30.7485389529       77.7816671317  TIP3      784             0.0000000000
     19727       921  TIP3      OH2             2.1297945226       27.1834811543       79.9416777012  TIP3      785             0.0000000000
     19728       921  TIP3      H1              2.4767867442       26.3270983738       80.2386571065  TIP3      785             0.0000000000
     19729       921  TIP3      H2              2.5052196238       27.7678682350       80.6297264237  TIP3      785             0.0000000000
     19730       922  TIP3      OH2             6.0922489920       26.3970435220       77.1534396457  TIP3      786             0.0000000000
     19731       922  TIP3      H1              5.2651473360       26.9094691065       77.0542268534  TIP3      786             0.0000000000
     19732       922  TIP3      H2              6.7139927098       27.0125018860       76.7269392599  TIP3      786             0.0000000000
     19733       923  TIP3      OH2            11.5452386310       29.1094747207       80.7228800367  TIP3      787             0.0000000000
     19734       923  TIP3      H1             12.2086200954       28.4739058858       80.4051026611  TIP3      787             0.0000000000
     19735       923  TIP3      H2             11.0506808298       28.6007916274       81.3929983584  TIP3      787             0.0000000000
     19736       924  TIP3      OH2             7.0817871322       23.9933437296       78.0240433971  TIP3      788             0.0000000000
     19737       924  TIP3      H1              7.0287064256       23.2827437643       77.3513136336  TIP3      788             0.0000000000
     19738       924  TIP3      H2              6.7311096123       24.7707535438       77.5368017748  TIP3      788             0.0000000000
     19739       925  TIP3      OH2             7.1256469720       21.9654396777       76.0549853618  TIP3      789             0.0000000000
     19740       925  TIP3      H1              7.6530503663       22.3245176343       75.3066425568  TIP3      789             0.0000000000
     19741       925  TIP3      H2              6.2177726640       22.0478504017       75.7033049265  TIP3      789             0.0000000000
     19742       926  TIP3      OH2             8.3680278399       27.0941110842       75.1601852412  TIP3      790             0.0000000000
     19743       926  TIP3      H1              8.5268574480       26.1423979880       75.2331271042  TIP3      790             0.0000000000
     19744       926  TIP3      H2              7.6248521932       27.1553898728       74.5271342988  TIP3      790             0.0000000000
     19745       927  TIP3      OH2            12.3555210487       25.4737484894       81.1676551204  TIP3      791             0.0000000000
     19746       927  TIP3      H1             12.4023919938       24.5716728793       81.5771708046  TIP3      791             0.0000000000
     19747       927  TIP3      H2             13.1196589171       25.4334342207       80.5642415841  TIP3      791             0.0000000000
     19748       928  TIP3      OH2            14.4557191611       28.4013347446       79.7587882959  TIP3      792             0.0000000000
     19749       928  TIP3      H1             14.1475483557       28.8344103052       78.9389047417  TIP3      792             0.0000000000
     19750       928  TIP3      H2             15.3629766936       28.1261669163       79.5054135831  TIP3      792             0.0000000000
     19751       929  TIP3      OH2             5.2204552605       24.2073978303       80.3741499315  TIP3      793             0.0000000000
     19752       929  TIP3      H1              4.3865956841       23.7482172544       80.1185719702  TIP3      793             0.0000000000
     19753       929  TIP3      H2              5.4777236694       24.6427668098       79.5513552248  TIP3      793             0.0000000000
     19754       930  TIP3      OH2             8.0432285120       19.4351022494       76.2505967735  TIP3      794             0.0000000000
     19755       930  TIP3      H1              7.7258392047       20.3629514248       76.2589615571  TIP3      794             0.0000000000
     19756       930  TIP3      H2              7.3077866552       19.0031661811       75.8016695615  TIP3      794             0.0000000000
     19757       931  TIP3      OH2             8.8080011539       23.8951409882       80.1917063048  TIP3      795             0.0000000000
     19758       931  TIP3      H1              8.1923828379       23.6280624970       80.9111336975  TIP3      795             0.0000000000
     19759       931  TIP3      H2              8.2434313982       23.7262495828       79.4077250047  TIP3      795             0.0000000000
     19760       932  TIP3      OH2            11.5658509048       23.2511304436       79.1628012643  TIP3      796             0.0000000000
     19761       932  TIP3      H1             10.6253071285       23.1375088180       79.3823536776  TIP3      796             0.0000000000
     19762       932  TIP3      H2             11.9361411349       22.5814370402       79.7878055144  TIP3      796             0.0000000000
     19763       933  TIP3      OH2            12.5845294793       21.2578930831       80.7524501709  TIP3      797             0.0000000000
     19764       933  TIP3      H1             12.9475137364       20.3740515020       80.9771428554  TIP3      797             0.0000000000
     19765       933  TIP3      H2             12.8302980928       21.8006204559       81.5319423699  TIP3      797             0.0000000000
     19766       934  TIP3      OH2             2.8923245106       22.6831442746       80.1744429294  TIP3      798             0.0000000000
     19767       934  TIP3      H1              2.9328150909       21.8664187902       79.6510404267  TIP3      798             0.0000000000
     19768       934  TIP3      H2              2.7239244349       22.3608867312       81.0962343442  TIP3      798             0.0000000000
     19769       935  TIP3      OH2             7.5031152929       18.7026868994       78.8343459729  TIP3      799             0.0000000000
     19770       935  TIP3      H1              8.2783577848       18.1154496351       78.9377754128  TIP3      799             0.0000000000
     19771       935  TIP3      H2              7.5653237201       18.8445637956       77.8653764976  TIP3      799             0.0000000000
     19772       936  TIP3      OH2             7.8226648649       20.0156407221       81.6756577668  TIP3      800             0.0000000000
     19773       936  TIP3      H1              7.6327296380       19.5963788412       80.8134442068  TIP3      800             0.0000000000
     19774       936  TIP3      H2              7.6916716132       20.9547141876       81.4537943138  TIP3      800             0.0000000000
     19775       937  TIP3      OH2            -0.0558058165       37.1255709648       68.6194012322  TIP3      801             0.0000000000
     19776       937  TIP3      H1             -0.2299970692       36.2413675286       68.2775657324  TIP3      801             0.0000000000
     19777       937  TIP3      H2              0.4402384206       36.8872435040       69.4283101076  TIP3      801             0.0000000000
     19778       938  TIP3      OH2             1.2267193678       35.8329655332       70.7162133016  TIP3      802             0.0000000000
     19779       938  TIP3      H1              0.8936899834       34.9787714473       71.0322481132  TIP3      802             0.0000000000
     19780       938  TIP3      H2              1.8088635374       36.0745851500       71.4670259042  TIP3      802             0.0000000000
     19781       939  TIP3      OH2            18.3328662388       36.2595979062       73.3990946085  TIP3      803             0.0000000000
     19782       939  TIP3      H1             18.4906314467       36.1377715161       74.3464765569  TIP3      803             0.0000000000
     19783       939  TIP3      H2             18.9493692574       36.9790331477       73.2202213618  TIP3      803             0.0000000000
     19784       940  TIP3      OH2            18.1091233779       35.4140335964       76.4629658734  TIP3      804             0.0000000000
     19785       940  TIP3      H1             17.7647911453       34.6209838265       75.9982769804  TIP3      804             0.0000000000
     19786       940  TIP3      H2             18.3542506014       35.0033287065       77.3208821554  TIP3      804             0.0000000000
     19787       941  TIP3      OH2            16.9280168239       31.3311745780       81.3448838971  TIP3      805             0.0000000000
     19788       941  TIP3      H1             16.1049181956       31.5442970417       81.8525032200  TIP3      805             0.0000000000
     19789       941  TIP3      H2             17.4074369772       32.1837738553       81.4799715901  TIP3      805             0.0000000000
     19790       942  TIP3      OH2            17.7144796279       29.8844966329       66.3928679216  TIP3      806             0.0000000000
     19791       942  TIP3      H1             18.6715741126       30.0843920182       66.4584020651  TIP3      806             0.0000000000
     19792       942  TIP3      H2             17.6069555928       29.1568743852       67.0225296484  TIP3      806             0.0000000000
     19793       943  TIP3      OH2            18.4251369501       27.7073969517       69.1270428849  TIP3      807             0.0000000000
     19794       943  TIP3      H1             17.5926863512       27.1949143746       69.0874656487  TIP3      807             0.0000000000
     19795       943  TIP3      H2             18.2905523990       28.1904325237       69.9508572589  TIP3      807             0.0000000000
     19796       944  TIP3      OH2            17.9647841358       30.4801404340       73.0375512952  TIP3      808             0.0000000000
     19797       944  TIP3      H1             18.6665530150       29.7986345026       73.0041279509  TIP3      808             0.0000000000
     19798       944  TIP3      H2             18.4347170170       31.3049313385       72.7977425839  TIP3      808             0.0000000000
     19799       945  TIP3      OH2            16.5651720207       33.4025258797       75.7214811252  TIP3      809             0.0000000000
     19800       945  TIP3      H1             15.9448618353       33.9274449610       76.2573562334  TIP3      809             0.0000000000
     19801       945  TIP3      H2             15.9957832073       33.1431388607       74.9580449634  TIP3      809             0.0000000000
     19802       946  TIP3      OH2            16.8923255920       24.7867212500       63.4793280013  TIP3      810             0.0000000000
     19803       946  TIP3      H1             16.3217440971       25.5056626675       63.1467852650  TIP3      810             0.0000000000
     19804       946  TIP3      H2             16.7390753091       24.0873627202       62.7932120004  TIP3      810             0.0000000000
     19805       947  TIP3      OH2            16.1542103795       26.1614184433       69.2582337856  TIP3      811             0.0000000000
     19806       947  TIP3      H1             15.8713463650       25.2497632251       69.0512113804  TIP3      811             0.0000000000
     19807       947  TIP3      H2             15.8653461767       26.2544176900       70.1948972436  TIP3      811             0.0000000000
     19808       948  TIP3      OH2             1.0918205001       28.1468766690       73.3537432627  TIP3      812             0.0000000000
     19809       948  TIP3      H1              0.9483851838       28.0064761962       72.3854995336  TIP3      812             0.0000000000
     19810       948  TIP3      H2              2.0545746567       27.9319445529       73.3987369265  TIP3      812             0.0000000000
     19811       949  TIP3      OH2            17.2432551385       28.1802581196       79.0484608666  TIP3      813             0.0000000000
     19812       949  TIP3      H1             17.6628116027       27.2802922038       79.0900283678  TIP3      813             0.0000000000
     19813       949  TIP3      H2             17.9341708132       28.7566132132       78.6636438317  TIP3      813             0.0000000000
     19814       950  TIP3      OH2            18.0813528762       25.6511220283       79.3759300699  TIP3      814             0.0000000000
     19815       950  TIP3      H1             17.1869629546       25.2449984130       79.2920176858  TIP3      814             0.0000000000
     19816       950  TIP3      H2             18.6842241157       24.8695834431       79.4129058330  TIP3      814             0.0000000000
     19817       951  TIP3      OH2            15.5334366757       23.8918334050       67.7203322615  TIP3      815             0.0000000000
     19818       951  TIP3      H1             15.7258339204       22.9667819001       67.9888556371  TIP3      815             0.0000000000
     19819       951  TIP3      H2             16.2888296319       24.1185828681       67.1471054104  TIP3      815             0.0000000000
     19820       952  TIP3      OH2            16.4793063338       24.5158326054       73.3211019429  TIP3      816             0.0000000000
     19821       952  TIP3      H1             17.4624911954       24.6286049809       73.2626857294  TIP3      816             0.0000000000
     19822       952  TIP3      H2             16.3551040219       24.5233584481       74.2824199086  TIP3      816             0.0000000000
     19823       953  TIP3      OH2            16.5163105335       25.4163644928       75.9080829520  TIP3      817             0.0000000000
     19824       953  TIP3      H1             15.5745660621       25.6119819933       75.7560289601  TIP3      817             0.0000000000
     19825       953  TIP3      H2             16.9695872703       26.2521498718       75.6617184852  TIP3      817             0.0000000000
     19826       954  TIP3      OH2             1.5697842676       24.3254057957       78.4019001899  TIP3      818             0.0000000000
     19827       954  TIP3      H1              1.9447773174       23.9840343268       79.2419735849  TIP3      818             0.0000000000
     19828       954  TIP3      H2              0.7610059051       23.7489341641       78.3663582736  TIP3      818             0.0000000000
     19829       955  TIP3      OH2            18.5805423344       19.5816770153       80.7461190397  TIP3      819             0.0000000000
     19830       955  TIP3      H1             18.9946406086       18.8188153551       80.2861352691  TIP3      819             0.0000000000
     19831       955  TIP3      H2             18.6813081673       20.2959033831       80.0815597470  TIP3      819             0.0000000000
     19832       956  TIP3      OH2            15.6295641573       21.2251999103       68.2257439261  TIP3      820             0.0000000000
     19833       956  TIP3      H1             16.4897021467       20.9289298380       68.5893784968  TIP3      820             0.0000000000
     19834       956  TIP3      H2             15.5033077820       20.6550129996       67.4487279000  TIP3      820             0.0000000000
     19835       957  TIP3      OH2             1.8957153263       22.2507295491       72.7612680428  TIP3      821             0.0000000000
     19836       957  TIP3      H1              1.9993206101       21.4774835898       73.3487562705  TIP3      821             0.0000000000
     19837       957  TIP3      H2              2.7508147492       22.7139637222       72.8327427168  TIP3      821             0.0000000000
     19838       958  TIP3      OH2             0.3391630618       25.3276185036       73.3634992397  TIP3      822             0.0000000000
     19839       958  TIP3      H1              0.9785334135       24.9456697123       72.7289795870  TIP3      822             0.0000000000
     19840       958  TIP3      H2              0.7474242263       26.1942705831       73.5000320992  TIP3      822             0.0000000000
     19841       959  TIP3      OH2            18.1444143262       21.7652981767       79.3249067686  TIP3      823             0.0000000000
     19842       959  TIP3      H1             17.4977348720       21.9807048685       80.0274894259  TIP3      823             0.0000000000
     19843       959  TIP3      H2             17.5570399188       21.4108442502       78.6345588049  TIP3      823             0.0000000000
     19844       960  TIP3      OH2             0.8402511118       21.0759121154       66.9154745038  TIP3      824             0.0000000000
     19845       960  TIP3      H1              1.2465302716       21.0176077483       67.7904328958  TIP3      824             0.0000000000
     19846       960  TIP3      H2              1.4668224121       21.6158540852       66.3933708260  TIP3      824             0.0000000000
     19847       961  TIP3      OH2            15.7551477034       36.2790826364       69.7989257732  TIP3      825             0.0000000000
     19848       961  TIP3      H1             16.1106848023       36.3727311462       68.8933264078  TIP3      825             0.0000000000
     19849       961  TIP3      H2             15.9616485241       37.1059341042       70.2598717468  TIP3      825             0.0000000000
     19850       962  TIP3      OH2             0.3539869203       19.9880718766       75.2629462584  TIP3      826             0.0000000000
     19851       962  TIP3      H1             -0.4327571395       19.5352945598       75.6334503857  TIP3      826             0.0000000000
     19852       962  TIP3      H2             -0.0136323384       20.8802383147       75.1544257561  TIP3      826             0.0000000000
     19853       963  TIP3      OH2             2.7311650513       33.2026226419       79.7412722107  TIP3      827             0.0000000000
     19854       963  TIP3      H1              2.8126007655       32.4165454094       79.1794328103  TIP3      827             0.0000000000
     19855       963  TIP3      H2              2.7318947221       32.8324962846       80.6334144363  TIP3      827             0.0000000000
     19856       964  TIP3      OH2             5.5689072738       34.5488339085       76.2520574720  TIP3      828             0.0000000000
     19857       964  TIP3      H1              5.3922194268       35.4620917877       75.9428158021  TIP3      828             0.0000000000
     19858       964  TIP3      H2              6.5541131269       34.5322868286       76.1773581233  TIP3      828             0.0000000000
     19859       965  TIP3      OH2             9.6918726140       35.6974031966       78.7286731891  TIP3      829             0.0000000000
     19860       965  TIP3      H1              9.8186754551       35.6925024416       79.7034562502  TIP3      829             0.0000000000
     19861       965  TIP3      H2             10.5593589242       36.0512763908       78.4458000289  TIP3      829             0.0000000000
     19862       966  TIP3      OH2            11.9852581204       37.3741140027       78.3347372480  TIP3      830             0.0000000000
     19863       966  TIP3      H1             12.7933980542       36.9098822085       78.0824597678  TIP3      830             0.0000000000
     19864       966  TIP3      H2             12.2562108562       37.7957650405       79.1780150178  TIP3      830             0.0000000000
     19865       967  TIP3      OH2            16.9929509451       19.1659332589       77.4593011512  TIP3      831             0.0000000000
     19866       967  TIP3      H1             16.2698707258       19.5582901206       76.9549059468  TIP3      831             0.0000000000
     19867       967  TIP3      H2             17.0471536371       18.2643228911       77.0842566636  TIP3      831             0.0000000000
     19868       968  TIP3      OH2             2.8860332888       37.4177876721       76.1964705820  TIP3      832             0.0000000000
     19869       968  TIP3      H1              2.1499409499       37.8794944720       75.7190036045  TIP3      832             0.0000000000
     19870       968  TIP3      H2              2.9499687951       37.9455907060       77.0095633490  TIP3      832             0.0000000000
     19871       969  TIP3      OH2             5.3732008809       37.1698042950       74.8411144816  TIP3      833             0.0000000000
     19872       969  TIP3      H1              4.4776592139       37.3342907633       75.1935025072  TIP3      833             0.0000000000
     19873       969  TIP3      H2              5.3823621119       37.6829290767       74.0161899795  TIP3      833             0.0000000000
     19874       970  TIP3      OH2             9.9120032945       36.6875488644       74.4439586806  TIP3      834             0.0000000000
     19875       970  TIP3      H1              9.0536817398       37.0866189413       74.2198035941  TIP3      834             0.0000000000
     19876       970  TIP3      H2             10.3260605939       37.4616236056       74.8699809598  TIP3      834             0.0000000000
     19877       971  TIP3      OH2            12.2335402159       35.5755914537       75.6197662020  TIP3      835             0.0000000000
     19878       971  TIP3      H1             11.4966236441       35.9244053260       75.0704637420  TIP3      835             0.0000000000
     19879       971  TIP3      H2             12.9129610435       36.2636656403       75.4686286216  TIP3      835             0.0000000000
     19880       972  TIP3      OH2            14.7301503722       37.2125702843       75.3742991614  TIP3      836             0.0000000000
     19881       972  TIP3      H1             14.8475273629       38.1567146502       75.1346619529  TIP3      836             0.0000000000
     19882       972  TIP3      H2             14.9117479884       36.8105677006       74.4958822637  TIP3      836             0.0000000000
     19883       973  TIP3      OH2             2.5359749482       35.9503024796       73.0021500442  TIP3      837             0.0000000000
     19884       973  TIP3      H1              2.2831861133       35.4296873264       73.7843534140  TIP3      837             0.0000000000
     19885       973  TIP3      H2              3.3700453847       35.5061207902       72.7376142179  TIP3      837             0.0000000000
     19886       974  TIP3      OH2             4.4939102168       34.5160964931       71.7367441197  TIP3      838             0.0000000000
     19887       974  TIP3      H1              4.3683413817       33.6285928736       72.1093324753  TIP3      838             0.0000000000
     19888       974  TIP3      H2              5.4005897241       34.7153066715       72.0558890094  TIP3      838             0.0000000000
     19889       975  TIP3      OH2             6.8940849524       34.9019488564       73.0827751969  TIP3      839             0.0000000000
     19890       975  TIP3      H1              7.3119998559       34.0541077474       72.8239724046  TIP3      839             0.0000000000
     19891       975  TIP3      H2              7.1927772947       34.9852014848       74.0049486079  TIP3      839             0.0000000000
     19892       976  TIP3      OH2            10.0668832900       20.2910979869       71.2330929600  TIP3      840             0.0000000000
     19893       976  TIP3      H1              9.4193879075       19.7439200421       71.7334843805  TIP3      840             0.0000000000
     19894       976  TIP3      H2             10.7710174235       19.6650028431       71.0326364211  TIP3      840             0.0000000000
     19895       977  TIP3      OH2            15.7923762517       18.8048169277       71.6057794750  TIP3      841             0.0000000000
     19896       977  TIP3      H1             16.5173116167       19.3450769774       71.2065509839  TIP3      841             0.0000000000
     19897       977  TIP3      H2             15.0329571005       19.2584097427       71.1723038857  TIP3      841             0.0000000000
     19898       978  TIP3      OH2            17.4985155835       20.1374815806       69.9910916109  TIP3      842             0.0000000000
     19899       978  TIP3      H1             18.0131706149       19.4213914289       69.5432092863  TIP3      842             0.0000000000
     19900       978  TIP3      H2             18.2036508574       20.7814669728       70.2312062136  TIP3      842             0.0000000000
     19901       979  TIP3      OH2             3.2679825091       19.3966526069       69.3288061644  TIP3      843             0.0000000000
     19902       979  TIP3      H1              2.4381469139       19.2304967169       68.8460570536  TIP3      843             0.0000000000
     19903       979  TIP3      H2              3.6564697837       18.4968089593       69.3269255886  TIP3      843             0.0000000000
     19904       980  TIP3      OH2             1.9046660956       19.0832040073       65.1946113922  TIP3      844             0.0000000000
     19905       980  TIP3      H1              2.2204723495       19.9163979334       64.8274100865  TIP3      844             0.0000000000
     19906       980  TIP3      H2              1.0732032456       19.3457648586       65.6199378679  TIP3      844             0.0000000000
     19907       981  TIP3      OH2             7.4591694731       19.9055234562       68.9762949151  TIP3      845             0.0000000000
     19908       981  TIP3      H1              8.3173934837       20.2052692579       68.5873384124  TIP3      845             0.0000000000
     19909       981  TIP3      H2              7.7808126837       19.5078909568       69.7982722024  TIP3      845             0.0000000000
     19910       982  TIP3      OH2            13.1350140431       19.4795051031       70.7362696468  TIP3      846             0.0000000000
     19911       982  TIP3      H1             12.8223051278       19.5965370488       69.8250545609  TIP3      846             0.0000000000
     19912       982  TIP3      H2             12.6381713228       18.6952773077       71.0623556533  TIP3      846             0.0000000000
     19913       983  TIP3      OH2            13.6145585338       19.7654271263       66.4255943279  TIP3      847             0.0000000000
     19914       983  TIP3      H1             13.6085991022       19.5603834005       65.4716228745  TIP3      847             0.0000000000
     19915       983  TIP3      H2             13.8737974717       18.8980589861       66.7797893073  TIP3      847             0.0000000000
     19916       984  TIP3      OH2             1.9717063519       35.5650823997       66.6088210903  TIP3      848             0.0000000000
     19917       984  TIP3      H1              2.2774409875       34.8689965002       66.0109326101  TIP3      848             0.0000000000
     19918       984  TIP3      H2              1.3328861089       36.0298761126       66.0477938634  TIP3      848             0.0000000000
     19919       985  TIP3      OH2             9.1626832709       22.0417407554       65.3478537360  TIP3      849             0.0000000000
     19920       985  TIP3      H1              8.5458567563       21.3776184352       65.6714528624  TIP3      849             0.0000000000
     19921       985  TIP3      H2              9.2706707573       22.5963049979       66.1465738654  TIP3      849             0.0000000000
     19922       986  TIP3      OH2            16.9225531689       35.7713570159       67.4482575561  TIP3      850             0.0000000000
     19923       986  TIP3      H1             16.7301870027       34.9904937705       66.8751425062  TIP3      850             0.0000000000
     19924       986  TIP3      H2             16.9107061881       36.5033579729       66.7938930315  TIP3      850             0.0000000000
     19925       987  TIP3      OH2             2.5863601197       20.0920426374       78.7389057151  TIP3      851             0.0000000000
     19926       987  TIP3      H1              1.7277961946       20.1835817329       79.1980222624  TIP3      851             0.0000000000
     19927       987  TIP3      H2              3.2450768549       19.9602429662       79.4563223255  TIP3      851             0.0000000000
     19928       988  TIP3      OH2             4.7480869876       19.6724309849       80.4745724181  TIP3      852             0.0000000000
     19929       988  TIP3      H1              5.3940583871       19.2356819747       79.8891421437  TIP3      852             0.0000000000
     19930       988  TIP3      H2              4.4428108146       18.9218046434       81.0430057585  TIP3      852             0.0000000000
     19931       989  TIP3      OH2            13.1943324328       18.6976719519       81.0434904184  TIP3      853             0.0000000000
     19932       989  TIP3      H1             13.3216234369       18.3469773933       81.9456368822  TIP3      853             0.0000000000
     19933       989  TIP3      H2             14.0821462897       18.4886373542       80.6604457335  TIP3      853             0.0000000000
     19934       990  TIP3      OH2            16.3548487045       34.9493453470       79.3518979432  TIP3      854             0.0000000000
     19935       990  TIP3      H1             15.6925441389       34.8324005859       78.6374555378  TIP3      854             0.0000000000
     19936       990  TIP3      H2             15.9865925824       35.7522726761       79.7834330844  TIP3      854             0.0000000000
     19937       991  TIP3      OH2            31.1986229792       28.6815181112       69.2935693053  TIP3      855             0.0000000000
     19938       991  TIP3      H1             31.1774616657       29.6655850137       69.3388149029  TIP3      855             0.0000000000
     19939       991  TIP3      H2             30.4303449891       28.5097758605       68.7300985750  TIP3      855             0.0000000000
     19940       992  TIP3      OH2            29.6128078586       27.7267336466       73.2824682660  TIP3      856             0.0000000000
     19941       992  TIP3      H1             30.0705525956       27.1884509314       73.9708445238  TIP3      856             0.0000000000
     19942       992  TIP3      H2             30.1629293917       27.5070869885       72.5163788455  TIP3      856             0.0000000000
     19943       993  TIP3      OH2            22.0258111042       27.3972452456       74.0257623272  TIP3      857             0.0000000000
     19944       993  TIP3      H1             21.9232338414       26.7351216478       74.7208812367  TIP3      857             0.0000000000
     19945       993  TIP3      H2             22.5213283412       28.0811129178       74.5227252053  TIP3      857             0.0000000000
     19946       994  TIP3      OH2            32.9650622481       31.0991431124       70.8464611579  TIP3      858             0.0000000000
     19947       994  TIP3      H1             33.7197025355       30.5018100717       71.0644586473  TIP3      858             0.0000000000
     19948       994  TIP3      H2             32.9154081876       31.6167467732       71.6594900497  TIP3      858             0.0000000000
     19949       995  TIP3      OH2            23.1010468470       32.0836940909       72.2556337823  TIP3      859             0.0000000000
     19950       995  TIP3      H1             22.9072681339       31.1363292099       72.3570965277  TIP3      859             0.0000000000
     19951       995  TIP3      H2             24.0678068569       32.0232171896       72.3717824888  TIP3      859             0.0000000000
     19952       996  TIP3      OH2            19.9560484416       25.3675745211       68.4460939025  TIP3      860             0.0000000000
     19953       996  TIP3      H1             19.6868566094       26.2973848214       68.3658725151  TIP3      860             0.0000000000
     19954       996  TIP3      H2             19.1987631003       24.9916245977       67.9744325451  TIP3      860             0.0000000000
     19955       997  TIP3      OH2            20.6285244389       27.7797017259       70.9547403221  TIP3      861             0.0000000000
     19956       997  TIP3      H1             20.7736637444       26.7990182809       71.0068759898  TIP3      861             0.0000000000
     19957       997  TIP3      H2             20.6866005906       27.9503024618       70.0101832388  TIP3      861             0.0000000000
     19958       998  TIP3      OH2            30.5768662091       36.1768568878       71.0658343338  TIP3      862             0.0000000000
     19959       998  TIP3      H1             31.3129983092       35.6130200271       70.7346767520  TIP3      862             0.0000000000
     19960       998  TIP3      H2             30.2316154475       35.5945445790       71.7603718396  TIP3      862             0.0000000000
     19961       999  TIP3      OH2            27.7897707341       30.2950062918       73.7920048826  TIP3      863             0.0000000000
     19962       999  TIP3      H1             28.1179533743       30.0279808028       72.9195710581  TIP3      863             0.0000000000
     19963       999  TIP3      H2             28.6406447162       30.5234174147       74.2226686056  TIP3      863             0.0000000000
     19964      1000  TIP3      OH2            36.6474288723       21.7408660207       73.6843100841  TIP3      864             0.0000000000
     19965      1000  TIP3      H1             36.7268885752       22.3283732533       74.4574587606  TIP3      864             0.0000000000
     19966      1000  TIP3      H2             37.4534904044       21.9890388018       73.2078729088  TIP3      864             0.0000000000
     19967      1001  TIP3      OH2            31.9737889784       24.6486400806       73.8031315889  TIP3      865             0.0000000000
     19968      1001  TIP3      H1             31.9527190789       23.6737398313       73.8784709354  TIP3      865             0.0000000000
     19969      1001  TIP3      H2             32.0492926203       24.7255500584       72.8404206848  TIP3      865             0.0000000000
     19970      1002  TIP3      OH2            24.6793724721       22.4906446193       70.7733464882  TIP3      866             0.0000000000
     19971      1002  TIP3      H1             24.6370910292       23.3276243371       70.2785473384  TIP3      866             0.0000000000
     19972      1002  TIP3      H2             24.2044822996       21.9147355880       70.1327514578  TIP3      866             0.0000000000
     19973      1003  TIP3      OH2            31.9879013386       22.9535790372       69.3198611221  TIP3      867             0.0000000000
     19974      1003  TIP3      H1             32.6207258399       22.7466788147       70.0452419805  TIP3      867             0.0000000000
     19975      1003  TIP3      H2             32.2837622280       23.8314653213       69.0404946215  TIP3      867             0.0000000000
     19976      1004  TIP3      OH2            20.9993381342       25.1963440661       71.4425243032  TIP3      868             0.0000000000
     19977      1004  TIP3      H1             21.6536842934       24.7915494324       72.0391806187  TIP3      868             0.0000000000
     19978      1004  TIP3      H2             21.1838533981       24.7363613813       70.6014066394  TIP3      868             0.0000000000
     19979      1005  TIP3      OH2            25.7358710963       26.7981624123       70.8078854468  TIP3      869             0.0000000000
     19980      1005  TIP3      H1             26.5444508893       26.3788968305       71.1725232745  TIP3      869             0.0000000000
     19981      1005  TIP3      H2             25.2987288771       25.9835411456       70.4756247346  TIP3      869             0.0000000000
     19982      1006  TIP3      OH2            36.8103384902       23.3908669446       76.0526923603  TIP3      870             0.0000000000
     19983      1006  TIP3      H1             36.4583176582       24.1279761424       75.5070332725  TIP3      870             0.0000000000
     19984      1006  TIP3      H2             37.1823303551       23.8632028990       76.8174606154  TIP3      870             0.0000000000
     19985      1007  TIP3      OH2            23.7489036534       21.7987567499       74.7953810385  TIP3      871             0.0000000000
     19986      1007  TIP3      H1             23.2742134981       22.2961259670       74.1010216727  TIP3      871             0.0000000000
     19987      1007  TIP3      H2             23.1002229060       21.8844096424       75.5214544655  TIP3      871             0.0000000000
     19988      1008  TIP3      OH2            30.4510042576       31.1883099602       68.4483988552  TIP3      872             0.0000000000
     19989      1008  TIP3      H1             30.3817685382       31.4285880857       67.5075490363  TIP3      872             0.0000000000
     19990      1008  TIP3      H2             30.1348750378       32.0133873488       68.8729842170  TIP3      872             0.0000000000
     19991      1009  TIP3      OH2            25.5439425027       29.3115831709       75.0193093414  TIP3      873             0.0000000000
     19992      1009  TIP3      H1             24.9838872333       30.0961006273       75.1888583445  TIP3      873             0.0000000000
     19993      1009  TIP3      H2             26.2852897048       29.7418990237       74.5273752062  TIP3      873             0.0000000000
     19994      1010  TIP3      OH2            34.0238298757       22.6254223714       71.1759946182  TIP3      874             0.0000000000
     19995      1010  TIP3      H1             34.5512644256       21.8186041608       71.1332897539  TIP3      874             0.0000000000
     19996      1010  TIP3      H2             34.6318737324       23.2107137933       71.6870435223  TIP3      874             0.0000000000
     19997      1011  TIP3      OH2            23.0087800868       23.4780953107       72.7184630564  TIP3      875             0.0000000000
     19998      1011  TIP3      H1             23.6334420070       24.1564487662       73.0470599975  TIP3      875             0.0000000000
     19999      1011  TIP3      H2             23.5262017517       23.0564137909       71.9960014795  TIP3      875             0.0000000000
     20000      1012  TIP3      OH2            24.3055457192       31.6065052256       75.6798722348  TIP3      876             0.0000000000
     20001      1012  TIP3      H1             24.1960385262       32.4990480100       75.3109754838  TIP3      876             0.0000000000
     20002      1012  TIP3      H2             23.4571117577       31.5137583235       76.1824228241  TIP3      876             0.0000000000
     20003      1013  TIP3      OH2            20.3643092839       30.9842799188       66.3883472259  TIP3      877             0.0000000000
     20004      1013  TIP3      H1             20.0258973431       31.5335982789       65.6529621689  TIP3      877             0.0000000000
     20005      1013  TIP3      H2             20.4287401880       31.6135327493       67.1372927260  TIP3      877             0.0000000000
     20006      1014  TIP3      OH2            34.2312368727       33.0420192794       73.5393091731  TIP3      878             0.0000000000
     20007      1014  TIP3      H1             33.2665727174       32.9525050406       73.6374890103  TIP3      878             0.0000000000
     20008      1014  TIP3      H2             34.2470424634       33.9462443251       73.1654942307  TIP3      878             0.0000000000
     20009      1015  TIP3      OH2            34.0452110685       21.1178366622       74.3307134708  TIP3      879             0.0000000000
     20010      1015  TIP3      H1             33.4374166284       21.5849723586       73.7272087881  TIP3      879             0.0000000000
     20011      1015  TIP3      H2             34.9314646562       21.3629698034       73.9853576481  TIP3      879             0.0000000000
     20012      1016  TIP3      OH2            26.9612725495       19.1202319419       72.3064695227  TIP3      880             0.0000000000
     20013      1016  TIP3      H1             26.7126618192       18.1871473327       72.2316271114  TIP3      880             0.0000000000
     20014      1016  TIP3      H2             26.0761085930       19.5237670915       72.5383973870  TIP3      880             0.0000000000
     20015      1017  TIP3      OH2            32.5222906957       34.5537321240       69.9521186535  TIP3      881             0.0000000000
     20016      1017  TIP3      H1             32.8654526688       33.8722074049       69.3208976030  TIP3      881             0.0000000000
     20017      1017  TIP3      H2             33.1416166230       35.3092294468       69.8190065391  TIP3      881             0.0000000000
     20018      1018  TIP3      OH2            33.2524354477       32.2863222227       68.4103842388  TIP3      882             0.0000000000
     20019      1018  TIP3      H1             33.1897179983       31.5473639364       67.7854919469  TIP3      882             0.0000000000
     20020      1018  TIP3      H2             33.1206214039       31.8102278605       69.2669280102  TIP3      882             0.0000000000
     20021      1019  TIP3      OH2            35.0085035317       31.0761904926       77.0439264330  TIP3      883             0.0000000000
     20022      1019  TIP3      H1             35.3676593122       30.4565685882       76.3681163012  TIP3      883             0.0000000000
     20023      1019  TIP3      H2             35.2507851770       31.9290255497       76.6172775770  TIP3      883             0.0000000000
     20024      1020  TIP3      OH2            29.5735832144       28.0747977446       67.0612117850  TIP3      884             0.0000000000
     20025      1020  TIP3      H1             29.1986078842       28.9263291812       66.7875885846  TIP3      884             0.0000000000
     20026      1020  TIP3      H2             30.3949457581       28.0363193469       66.5106572580  TIP3      884             0.0000000000
     20027      1021  TIP3      OH2            37.0354772077       27.4267992341       75.1108682582  TIP3      885             0.0000000000
     20028      1021  TIP3      H1             36.4769326433       28.2300072061       75.0919063663  TIP3      885             0.0000000000
     20029      1021  TIP3      H2             37.6279447466       27.6687121753       74.3713043047  TIP3      885             0.0000000000
     20030      1022  TIP3      OH2            33.4866462274       28.1637531385       67.9279450221  TIP3      886             0.0000000000
     20031      1022  TIP3      H1             32.7785012941       28.3444783490       68.5982887479  TIP3      886             0.0000000000
     20032      1022  TIP3      H2             34.0658755985       27.5440811783       68.4372212993  TIP3      886             0.0000000000
     20033      1023  TIP3      OH2            33.3571261931       26.5461789588       76.9166768950  TIP3      887             0.0000000000
     20034      1023  TIP3      H1             33.0750697261       27.3079021952       77.4460644002  TIP3      887             0.0000000000
     20035      1023  TIP3      H2             32.7771124809       26.6410337817       76.1453268837  TIP3      887             0.0000000000
     20036      1024  TIP3      OH2            24.4626543668       28.9785542536       70.0584338197  TIP3      888             0.0000000000
     20037      1024  TIP3      H1             23.8501403841       28.6405380647       69.3681912985  TIP3      888             0.0000000000
     20038      1024  TIP3      H2             24.9006513498       28.1589601513       70.3671613818  TIP3      888             0.0000000000
     20039      1025  TIP3      OH2            25.8861381814       32.0797245855       72.2324395867  TIP3      889             0.0000000000
     20040      1025  TIP3      H1             26.0445328186       31.8538071335       71.3096938420  TIP3      889             0.0000000000
     20041      1025  TIP3      H2             26.5539461454       31.5455721282       72.7106259251  TIP3      889             0.0000000000
     20042      1026  TIP3      OH2            24.8665453176       27.3172760536       73.4587502004  TIP3      890             0.0000000000
     20043      1026  TIP3      H1             24.4306412831       27.7140591416       72.6853655734  TIP3      890             0.0000000000
     20044      1026  TIP3      H2             24.8054100423       28.0971724650       74.0569195303  TIP3      890             0.0000000000
     20045      1027  TIP3      OH2            31.5896986740       33.3807153068       74.0404060005  TIP3      891             0.0000000000
     20046      1027  TIP3      H1             31.4348744001       34.2250619980       74.5033314969  TIP3      891             0.0000000000
     20047      1027  TIP3      H2             30.9808426626       32.7968581523       74.5184123968  TIP3      891             0.0000000000
     20048      1028  TIP3      OH2            25.9346242266       31.9497042967       77.7682002032  TIP3      892             0.0000000000
     20049      1028  TIP3      H1             25.2340740459       32.4484579088       78.2496350853  TIP3      892             0.0000000000
     20050      1028  TIP3      H2             25.4790383963       31.7788140815       76.9084878310  TIP3      892             0.0000000000
     20051      1029  TIP3      OH2            31.9621323514       27.5929445313       65.7971124976  TIP3      893             0.0000000000
     20052      1029  TIP3      H1             32.5930445887       27.8403488619       66.5163226634  TIP3      893             0.0000000000
     20053      1029  TIP3      H2             32.3887076776       27.9111086956       64.9841362150  TIP3      893             0.0000000000
     20054      1030  TIP3      OH2            22.7106090556       28.3963536646       76.4594724956  TIP3      894             0.0000000000
     20055      1030  TIP3      H1             22.9843357152       29.2588340102       76.8228588267  TIP3      894             0.0000000000
     20056      1030  TIP3      H2             22.3440101145       27.9781924175       77.2590933624  TIP3      894             0.0000000000
     20057      1031  TIP3      OH2            29.9937181798       33.6885016388       69.4520897782  TIP3      895             0.0000000000
     20058      1031  TIP3      H1             30.9407064510       33.8481226255       69.6688841231  TIP3      895             0.0000000000
     20059      1031  TIP3      H2             29.6654233915       34.5854367275       69.3274840328  TIP3      895             0.0000000000
     20060      1032  TIP3      OH2            24.1662263733       33.6761288431       78.8949699045  TIP3      896             0.0000000000
     20061      1032  TIP3      H1             24.1042454106       34.1153506569       78.0250078686  TIP3      896             0.0000000000
     20062      1032  TIP3      H2             23.2313983525       33.3835263302       78.9972763901  TIP3      896             0.0000000000
     20063      1033  TIP3      OH2            23.1118641645       27.7489606245       67.9196114819  TIP3      897             0.0000000000
     20064      1033  TIP3      H1             23.1273951270       28.4639791613       67.2485298521  TIP3      897             0.0000000000
     20065      1033  TIP3      H2             22.2140143795       27.4109445528       67.8109679881  TIP3      897             0.0000000000
     20066      1034  TIP3      OH2            19.8775877958       30.3826859571       76.1578821240  TIP3      898             0.0000000000
     20067      1034  TIP3      H1             19.2233238782       30.3653213111       75.4460958624  TIP3      898             0.0000000000
     20068      1034  TIP3      H2             20.1706903320       29.4464828307       76.1664819354  TIP3      898             0.0000000000
     20069      1035  TIP3      OH2            19.6845110424       32.8030607139       72.8273108378  TIP3      899             0.0000000000
     20070      1035  TIP3      H1             20.3520471697       32.2690351120       73.2735948425  TIP3      899             0.0000000000
     20071      1035  TIP3      H2             19.7836879391       33.6321094904       73.3224214410  TIP3      899             0.0000000000
     20072      1036  TIP3      OH2            37.5846695729       33.7516029955       78.7308998672  TIP3      900             0.0000000000
     20073      1036  TIP3      H1             37.4005631646       32.7929394239       78.8049634104  TIP3      900             0.0000000000
     20074      1036  TIP3      H2             36.7463566059       34.1176659419       79.1008297375  TIP3      900             0.0000000000
     20075      1037  TIP3      OH2            28.5917669987       33.0062726794       77.5165584286  TIP3      901             0.0000000000
     20076      1037  TIP3      H1             28.7920882428       33.7562284939       78.1061926545  TIP3      901             0.0000000000
     20077      1037  TIP3      H2             27.6567432128       32.7962157702       77.7173168782  TIP3      901             0.0000000000
     20078      1038  TIP3      OH2            29.2062951666       36.9432625045       67.0727048692  TIP3      902             0.0000000000
     20079      1038  TIP3      H1             28.6739772978       37.3209845726       66.3638305659  TIP3      902             0.0000000000
     20080      1038  TIP3      H2             29.3807272138       37.7367026231       67.6244637113  TIP3      902             0.0000000000
     20081      1039  TIP3      OH2            22.5205157123       35.7411918090       69.3414820763  TIP3      903             0.0000000000
     20082      1039  TIP3      H1             23.0215018676       35.6574098334       70.1864472524  TIP3      903             0.0000000000
     20083      1039  TIP3      H2             21.7149129734       35.2511978093       69.5917657915  TIP3      903             0.0000000000
     20084      1040  TIP3      OH2            31.4483014025       36.0929326887       64.1420227626  TIP3      904             0.0000000000
     20085      1040  TIP3      H1             32.1507108231       35.7098958131       63.5895028190  TIP3      904             0.0000000000
     20086      1040  TIP3      H2             31.8450280504       35.9513440354       65.0191683516  TIP3      904             0.0000000000
     20087      1041  TIP3      OH2            31.5747686102       35.7189623692       67.1035154002  TIP3      905             0.0000000000
     20088      1041  TIP3      H1             30.6519009365       36.0693494607       67.1078904807  TIP3      905             0.0000000000
     20089      1041  TIP3      H2             31.4508530056       34.7766353361       67.2757330247  TIP3      905             0.0000000000
     20090      1042  TIP3      OH2            34.8575157849       25.0197570711       78.8021248115  TIP3      906             0.0000000000
     20091      1042  TIP3      H1             34.2473177856       25.5000861076       78.1976169093  TIP3      906             0.0000000000
     20092      1042  TIP3      H2             34.6219916655       24.1054883714       78.5651757138  TIP3      906             0.0000000000
     20093      1043  TIP3      OH2            22.1526258786       31.4535570518       77.2167802682  TIP3      907             0.0000000000
     20094      1043  TIP3      H1             22.1446261129       31.1144120914       78.1406677749  TIP3      907             0.0000000000
     20095      1043  TIP3      H2             21.2636121555       31.1988249916       76.8857087680  TIP3      907             0.0000000000
     20096      1044  TIP3      OH2            24.6261143048       20.0714128762       72.9486777633  TIP3      908             0.0000000000
     20097      1044  TIP3      H1             23.7021712778       19.8632680445       72.6937040999  TIP3      908             0.0000000000
     20098      1044  TIP3      H2             24.4958276828       20.8523205969       73.5196467985  TIP3      908             0.0000000000
     20099      1045  TIP3      OH2            29.5457757079       19.6374253684       76.3530624287  TIP3      909             0.0000000000
     20100      1045  TIP3      H1             30.0172464848       19.2492572706       77.1218933504  TIP3      909             0.0000000000
     20101      1045  TIP3      H2             28.6116932869       19.6052204198       76.6404053922  TIP3      909             0.0000000000
     20102      1046  TIP3      OH2            32.1491969935       23.7811781063       77.4664057438  TIP3      910             0.0000000000
     20103      1046  TIP3      H1             31.5150601593       23.4696347070       78.1559254744  TIP3      910             0.0000000000
     20104      1046  TIP3      H2             31.8448435858       24.6868028327       77.3125352161  TIP3      910             0.0000000000
     20105      1047  TIP3      OH2            24.7768145631       24.7928656509       74.4055848056  TIP3      911             0.0000000000
     20106      1047  TIP3      H1             24.0250547612       24.7668823094       75.0530121198  TIP3      911             0.0000000000
     20107      1047  TIP3      H2             24.5951609270       25.6576406473       73.9761401541  TIP3      911             0.0000000000
     20108      1048  TIP3      OH2            24.8317349988       24.8043655129       69.3543995343  TIP3      912             0.0000000000
     20109      1048  TIP3      H1             23.8535914941       24.7911646159       69.1860895840  TIP3      912             0.0000000000
     20110      1048  TIP3      H2             25.1436645398       24.0830618851       68.7779683224  TIP3      912             0.0000000000
     20111      1049  TIP3      OH2            30.1516978094       25.5860266016       67.7113134348  TIP3      913             0.0000000000
     20112      1049  TIP3      H1             29.9268425465       26.5327755513       67.5734456250  TIP3      913             0.0000000000
     20113      1049  TIP3      H2             30.8236306655       25.4640935797       67.0339592953  TIP3      913             0.0000000000
     20114      1050  TIP3      OH2            29.2465714413       26.0920496557       79.3785815255  TIP3      914             0.0000000000
     20115      1050  TIP3      H1             28.8095092788       25.3155024943       79.7874330747  TIP3      914             0.0000000000
     20116      1050  TIP3      H2             30.0689853159       26.0856906745       79.9085206525  TIP3      914             0.0000000000
     20117      1051  TIP3      OH2            30.4717374747       25.5713335630       71.2452037813  TIP3      915             0.0000000000
     20118      1051  TIP3      H1             31.1140224611       26.1358587659       70.7802202590  TIP3      915             0.0000000000
     20119      1051  TIP3      H2             30.7209467663       24.7028682517       70.8888420487  TIP3      915             0.0000000000
     20120      1052  TIP3      OH2            22.4903346067       24.8741731275       75.8407711704  TIP3      916             0.0000000000
     20121      1052  TIP3      H1             22.3304562520       25.2901195431       76.6948551222  TIP3      916             0.0000000000
     20122      1052  TIP3      H2             22.0370709782       24.0092394851       75.9817080718  TIP3      916             0.0000000000
     20123      1053  TIP3      OH2            19.4373772364       21.9283121164       70.3877894699  TIP3      917             0.0000000000
     20124      1053  TIP3      H1             20.1782503539       21.4733287386       70.8209364965  TIP3      917             0.0000000000
     20125      1053  TIP3      H2             19.5430739161       21.7436266012       69.4381255177  TIP3      917             0.0000000000
     20126      1054  TIP3      OH2            21.0138464297       22.5254002269       66.0671669145  TIP3      918             0.0000000000
     20127      1054  TIP3      H1             21.2900342427       22.3036955261       65.1527207063  TIP3      918             0.0000000000
     20128      1054  TIP3      H2             20.7308300862       23.4473637139       65.9972878556  TIP3      918             0.0000000000
     20129      1055  TIP3      OH2            30.5392252798       26.2300666761       75.2803765952  TIP3      919             0.0000000000
     20130      1055  TIP3      H1             31.1373898091       25.5672315990       74.8681838568  TIP3      919             0.0000000000
     20131      1055  TIP3      H2             29.9590291044       25.7166129810       75.8942234333  TIP3      919             0.0000000000
     20132      1056  TIP3      OH2            27.6154538302       22.8690665680       70.3199721920  TIP3      920             0.0000000000
     20133      1056  TIP3      H1             26.7315739176       22.5732487809       70.5890048234  TIP3      920             0.0000000000
     20134      1056  TIP3      H2             28.1997841754       22.1688823589       70.6791667752  TIP3      920             0.0000000000
     20135      1057  TIP3      OH2            22.2911373914       24.2890939264       68.9676795348  TIP3      921             0.0000000000
     20136      1057  TIP3      H1             21.4089794327       24.5805688892       68.6293008543  TIP3      921             0.0000000000
     20137      1057  TIP3      H2             22.2288987510       23.3228286764       68.8009033507  TIP3      921             0.0000000000
     20138      1058  TIP3      OH2            26.5267284260       25.0680626882       66.1590908143  TIP3      922             0.0000000000
     20139      1058  TIP3      H1             27.2922814946       24.4690256152       66.1921434902  TIP3      922             0.0000000000
     20140      1058  TIP3      H2             26.2108346881       24.9708046120       65.2318500049  TIP3      922             0.0000000000
     20141      1059  TIP3      OH2            31.6377995153       21.9938415222       73.3276278773  TIP3      923             0.0000000000
     20142      1059  TIP3      H1             30.9825570832       21.6837314577       73.9740433264  TIP3      923             0.0000000000
     20143      1059  TIP3      H2             31.5513486282       21.3746670436       72.5761761638  TIP3      923             0.0000000000
     20144      1060  TIP3      OH2            34.8524587807       37.7198698799       79.9565380527  TIP3      924             0.0000000000
     20145      1060  TIP3      H1             35.0552144930       38.0224775295       79.0539989499  TIP3      924             0.0000000000
     20146      1060  TIP3      H2             35.5717584413       38.1689812751       80.4503665218  TIP3      924             0.0000000000
     20147      1061  TIP3      OH2            22.4214259259       29.7953818427       79.4873817913  TIP3      925             0.0000000000
     20148      1061  TIP3      H1             23.0937089188       29.9310489339       80.1873997511  TIP3      925             0.0000000000
     20149      1061  TIP3      H2             21.5674502648       29.9120684667       79.9668242099  TIP3      925             0.0000000000
     20150      1062  TIP3      OH2            27.6896357641       25.1557180051       71.8243183466  TIP3      926             0.0000000000
     20151      1062  TIP3      H1             28.6684387610       25.1922915475       71.7144832790  TIP3      926             0.0000000000
     20152      1062  TIP3      H2             27.5982684603       24.1999199249       72.0095680441  TIP3      926             0.0000000000
     20153      1063  TIP3      OH2            23.1163546529       21.7602354627       68.5259603303  TIP3      927             0.0000000000
     20154      1063  TIP3      H1             22.6501642992       20.9189446545       68.7606207565  TIP3      927             0.0000000000
     20155      1063  TIP3      H2             23.1986367493       21.6932486726       67.5609963478  TIP3      927             0.0000000000
     20156      1064  TIP3      OH2            27.3317324324       23.4684862962       74.0803581037  TIP3      928             0.0000000000
     20157      1064  TIP3      H1             26.4412967318       23.7799824658       74.3279452144  TIP3      928             0.0000000000
     20158      1064  TIP3      H2             27.8208861426       23.4423470406       74.9211223742  TIP3      928             0.0000000000
     20159      1065  TIP3      OH2            27.7382500317       29.9851568426       66.1342254907  TIP3      929             0.0000000000
     20160      1065  TIP3      H1             27.0510057702       29.3071042472       65.9727599483  TIP3      929             0.0000000000
     20161      1065  TIP3      H2             27.3739771935       30.3761746354       66.9565895646  TIP3      929             0.0000000000
     20162      1066  TIP3      OH2            35.4730807759       29.5451134781       74.9094786872  TIP3      930             0.0000000000
     20163      1066  TIP3      H1             35.6544714410       29.6170887364       73.9416443612  TIP3      930             0.0000000000
     20164      1066  TIP3      H2             34.5387555476       29.2875722549       74.8609500695  TIP3      930             0.0000000000
     20165      1067  TIP3      OH2            31.5406709789       22.8512236051       64.8800232515  TIP3      931             0.0000000000
     20166      1067  TIP3      H1             30.9708022914       23.3408196434       64.2820368742  TIP3      931             0.0000000000
     20167      1067  TIP3      H2             32.1279746770       23.5835123835       65.1706139901  TIP3      931             0.0000000000
     20168      1068  TIP3      OH2            28.8282260936       30.3047427009       77.1348076874  TIP3      932             0.0000000000
     20169      1068  TIP3      H1             28.8440712554       30.0767337719       78.0724740201  TIP3      932             0.0000000000
     20170      1068  TIP3      H2             28.7090260282       31.2767024482       77.1850776098  TIP3      932             0.0000000000
     20171      1069  TIP3      OH2            32.8267760824       24.9663611894       65.7604609479  TIP3      933             0.0000000000
     20172      1069  TIP3      H1             33.5302342859       24.7477550058       66.3929690224  TIP3      933             0.0000000000
     20173      1069  TIP3      H2             32.6719646235       25.9004102056       65.9621222664  TIP3      933             0.0000000000
     20174      1070  TIP3      OH2            23.2026882606       29.3616759456       72.3603741560  TIP3      934             0.0000000000
     20175      1070  TIP3      H1             23.4998212119       29.4377394928       71.4213920204  TIP3      934             0.0000000000
     20176      1070  TIP3      H2             22.4519598762       28.7294997561       72.2986762963  TIP3      934             0.0000000000
     20177      1071  TIP3      OH2            29.8878561090       31.4084513003       65.5727860139  TIP3      935             0.0000000000
     20178      1071  TIP3      H1             29.3615208541       32.2194130401       65.5475667156  TIP3      935             0.0000000000
     20179      1071  TIP3      H2             29.1694400496       30.7661900916       65.7126588336  TIP3      935             0.0000000000
     20180      1072  TIP3      OH2            19.6910109250       27.8139497206       77.3661421078  TIP3      936             0.0000000000
     20181      1072  TIP3      H1             19.8770267599       27.3213391897       78.1945628106  TIP3      936             0.0000000000
     20182      1072  TIP3      H2             18.9706754250       27.3136151532       76.9510022574  TIP3      936             0.0000000000
     20183      1073  TIP3      OH2            27.0445615626       27.3973527181       78.9733607964  TIP3      937             0.0000000000
     20184      1073  TIP3      H1             26.8104140864       26.9299411684       78.1562146955  TIP3      937             0.0000000000
     20185      1073  TIP3      H2             27.9626190132       27.0464663083       79.1257993421  TIP3      937             0.0000000000
     20186      1074  TIP3      OH2            31.7672139495       32.7767782536       77.6311448511  TIP3      938             0.0000000000
     20187      1074  TIP3      H1             31.0528086005       33.0157808467       77.0265096594  TIP3      938             0.0000000000
     20188      1074  TIP3      H2             31.4347940955       33.1710910508       78.4677865921  TIP3      938             0.0000000000
     20189      1075  TIP3      OH2            36.8939295665       25.3293845606       66.0052429088  TIP3      939             0.0000000000
     20190      1075  TIP3      H1             36.5021181994       25.5788622096       65.1454314603  TIP3      939             0.0000000000
     20191      1075  TIP3      H2             37.4854466580       26.0926387875       66.1718806945  TIP3      939             0.0000000000
     20192      1076  TIP3      OH2            37.4301106614       30.9972617567       78.3361746297  TIP3      940             0.0000000000
     20193      1076  TIP3      H1             36.4698620356       30.9216830825       78.1626279122  TIP3      940             0.0000000000
     20194      1076  TIP3      H2             37.8141475971       30.8169897083       77.4487452706  TIP3      940             0.0000000000
     20195      1077  TIP3      OH2            35.3919935698       33.5041341478       65.9074023467  TIP3      941             0.0000000000
     20196      1077  TIP3      H1             35.2985044285       32.8194957832       66.5744732323  TIP3      941             0.0000000000
     20197      1077  TIP3      H2             34.5703636454       33.3634570708       65.4056258327  TIP3      941             0.0000000000
     20198      1078  TIP3      OH2            32.7173522686       27.9461559272       73.1629006233  TIP3      942             0.0000000000
     20199      1078  TIP3      H1             32.1115909938       28.5726812968       72.7604396856  TIP3      942             0.0000000000
     20200      1078  TIP3      H2             33.5760101013       28.2562574399       72.7753364962  TIP3      942             0.0000000000
     20201      1079  TIP3      OH2            25.4594775834       33.1041288580       69.2476142554  TIP3      943             0.0000000000
     20202      1079  TIP3      H1             25.6119027518       33.9653072243       68.8123386371  TIP3      943             0.0000000000
     20203      1079  TIP3      H2             24.5358308878       32.9177958890       69.0378952455  TIP3      943             0.0000000000
     20204      1080  TIP3      OH2            26.5520634354       30.5328949097       68.6827294019  TIP3      944             0.0000000000
     20205      1080  TIP3      H1             26.3268816556       31.4828377794       68.7799454656  TIP3      944             0.0000000000
     20206      1080  TIP3      H2             26.2924345990       30.1998316851       69.5533370721  TIP3      944             0.0000000000
     20207      1081  TIP3      OH2            27.0321558554       34.7947160112       75.7141126201  TIP3      945             0.0000000000
     20208      1081  TIP3      H1             27.5966125465       35.4889575706       75.3389547230  TIP3      945             0.0000000000
     20209      1081  TIP3      H2             27.5570544787       34.5053481631       76.4781401480  TIP3      945             0.0000000000
     20210      1082  TIP3      OH2            25.1112875443       35.8198655329       68.2753848236  TIP3      946             0.0000000000
     20211      1082  TIP3      H1             24.1806540702       35.6401114894       68.5422580564  TIP3      946             0.0000000000
     20212      1082  TIP3      H2             25.2327771892       36.7138585368       68.6112015974  TIP3      946             0.0000000000
     20213      1083  TIP3      OH2            30.2977346340       30.8036516685       74.8231919402  TIP3      947             0.0000000000
     20214      1083  TIP3      H1             30.0115612111       30.5675692721       75.7358014677  TIP3      947             0.0000000000
     20215      1083  TIP3      H2             30.7467286236       29.9934599227       74.5372318099  TIP3      947             0.0000000000
     20216      1084  TIP3      OH2            33.0687269628       32.2300141640       64.5253816280  TIP3      948             0.0000000000
     20217      1084  TIP3      H1             33.1304423953       31.5429245014       65.2231526126  TIP3      948             0.0000000000
     20218      1084  TIP3      H2             32.2874449488       31.9096675712       64.0538291968  TIP3      948             0.0000000000
     20219      1085  TIP3      OH2            33.7599904537       34.8722915338       77.2494940985  TIP3      949             0.0000000000
     20220      1085  TIP3      H1             33.0283575197       34.2283125487       77.3645403600  TIP3      949             0.0000000000
     20221      1085  TIP3      H2             33.4625050707       35.4172852337       76.4954616568  TIP3      949             0.0000000000
     20222      1086  TIP3      OH2            37.4470589053       36.2528517608       64.9277416233  TIP3      950             0.0000000000
     20223      1086  TIP3      H1             37.6196982153       36.8037776201       64.1471266548  TIP3      950             0.0000000000
     20224      1086  TIP3      H2             36.5331925956       36.5209750790       65.1478464950  TIP3      950             0.0000000000
     20225      1087  TIP3      OH2            21.6994869464       22.4759479699       76.7831936019  TIP3      951             0.0000000000
     20226      1087  TIP3      H1             21.2917671368       22.9773979736       77.5133902844  TIP3      951             0.0000000000
     20227      1087  TIP3      H2             21.2073132883       21.6396006730       76.8752502990  TIP3      951             0.0000000000
     20228      1088  TIP3      OH2            33.7215778681       30.1797150379       66.2583838554  TIP3      952             0.0000000000
     20229      1088  TIP3      H1             33.5980529873       29.3706229719       66.8090214221  TIP3      952             0.0000000000
     20230      1088  TIP3      H2             34.6980102021       30.1549041417       66.1872586978  TIP3      952             0.0000000000
     20231      1089  TIP3      OH2            21.0872082838       34.2647049660       75.0920167419  TIP3      953             0.0000000000
     20232      1089  TIP3      H1             21.7746476236       33.6311099733       75.3482980993  TIP3      953             0.0000000000
     20233      1089  TIP3      H2             21.3219228997       35.0145465120       75.6630328583  TIP3      953             0.0000000000
     20234      1090  TIP3      OH2            23.0259318856       29.8777650887       65.9522889473  TIP3      954             0.0000000000
     20235      1090  TIP3      H1             22.0826324146       29.9597710610       66.2115251841  TIP3      954             0.0000000000
     20236      1090  TIP3      H2             23.0061026279       30.5849595630       65.2882949245  TIP3      954             0.0000000000
     20237      1091  TIP3      OH2            30.0839021195       22.4879645431       76.1700151255  TIP3      955             0.0000000000
     20238      1091  TIP3      H1             31.0227165138       22.6690760956       76.3419967652  TIP3      955             0.0000000000
     20239      1091  TIP3      H2             29.9822774555       21.5441363674       76.4045581037  TIP3      955             0.0000000000
     20240      1092  TIP3      OH2            31.3927468157       21.1941675217       67.3375828716  TIP3      956             0.0000000000
     20241      1092  TIP3      H1             31.1870673763       21.7960894697       66.5955101677  TIP3      956             0.0000000000
     20242      1092  TIP3      H2             31.6413018404       21.8394451513       68.0451407753  TIP3      956             0.0000000000
     20243      1093  TIP3      OH2            28.2056087319       34.1296812156       66.0540093615  TIP3      957             0.0000000000
     20244      1093  TIP3      H1             28.5490979643       34.8096756183       66.6493124851  TIP3      957             0.0000000000
     20245      1093  TIP3      H2             28.5228064422       34.4289628913       65.1743448901  TIP3      957             0.0000000000
     20246      1094  TIP3      OH2            28.4402867540       23.4489623642       67.6100514703  TIP3      958             0.0000000000
     20247      1094  TIP3      H1             29.0312417934       24.2253235536       67.7375296508  TIP3      958             0.0000000000
     20248      1094  TIP3      H2             28.1282012394       23.2827385840       68.5233837903  TIP3      958             0.0000000000
     20249      1095  TIP3      OH2            29.0493154322       24.8777356762       77.0350633115  TIP3      959             0.0000000000
     20250      1095  TIP3      H1             29.1319275559       25.2244626970       77.9535474138  TIP3      959             0.0000000000
     20251      1095  TIP3      H2             29.3675711675       23.9482651667       77.1018229887  TIP3      959             0.0000000000
     20252      1096  TIP3      OH2            28.9288098131       20.5270274543       68.3691691568  TIP3      960             0.0000000000
     20253      1096  TIP3      H1             28.7510706921       20.8690152320       69.2749739911  TIP3      960             0.0000000000
     20254      1096  TIP3      H2             29.7689003549       21.0045016984       68.1662163174  TIP3      960             0.0000000000
     20255      1097  TIP3      OH2            24.5119560003       21.6798658378       65.3734376438  TIP3      961             0.0000000000
     20256      1097  TIP3      H1             24.7728474466       22.5993097797       65.5216802654  TIP3      961             0.0000000000
     20257      1097  TIP3      H2             25.3467840199       21.2516393305       65.1347035310  TIP3      961             0.0000000000
     20258      1098  TIP3      OH2            34.7266791408       22.3826328170       77.6779305583  TIP3      962             0.0000000000
     20259      1098  TIP3      H1             33.7986681925       22.5863329692       77.4473541378  TIP3      962             0.0000000000
     20260      1098  TIP3      H2             35.2319325314       22.6859607761       76.9011878461  TIP3      962             0.0000000000
     20261      1099  TIP3      OH2            33.8050507967       25.7827627080       71.2120691268  TIP3      963             0.0000000000
     20262      1099  TIP3      H1             33.5389088194       26.4130778204       71.9059199117  TIP3      963             0.0000000000
     20263      1099  TIP3      H2             34.4967282785       25.2786307666       71.6955850503  TIP3      963             0.0000000000
     20264      1100  TIP3      OH2            22.8563355839       32.1069805792       64.2342498066  TIP3      964             0.0000000000
     20265      1100  TIP3      H1             23.4615425904       32.4782479788       64.8863003608  TIP3      964             0.0000000000
     20266      1100  TIP3      H2             23.4451326745       31.4922257846       63.7412585628  TIP3      964             0.0000000000
     20267      1101  TIP3      OH2            34.4922339902       35.6589339004       73.2007091554  TIP3      965             0.0000000000
     20268      1101  TIP3      H1             34.4491013772       36.3866953269       72.5476581078  TIP3      965             0.0000000000
     20269      1101  TIP3      H2             35.4670018473       35.5779117989       73.2468375900  TIP3      965             0.0000000000
     20270      1102  TIP3      OH2            22.0523214442       19.5802875874       72.4365976850  TIP3      966             0.0000000000
     20271      1102  TIP3      H1             21.9893044770       19.5751046928       71.4602957021  TIP3      966             0.0000000000
     20272      1102  TIP3      H2             21.7740973794       18.6574304186       72.6374693129  TIP3      966             0.0000000000
     20273      1103  TIP3      OH2            20.8923810340       33.1113923341       68.2591044374  TIP3      967             0.0000000000
     20274      1103  TIP3      H1             20.2108395184       33.4728438579       68.8335251142  TIP3      967             0.0000000000
     20275      1103  TIP3      H2             21.0518811217       33.8744519183       67.6656057974  TIP3      967             0.0000000000
     20276      1104  TIP3      OH2            20.0537941962       36.6645915706       79.7132265630  TIP3      968             0.0000000000
     20277      1104  TIP3      H1             20.6341736506       36.5040146062       80.4945596711  TIP3      968             0.0000000000
     20278      1104  TIP3      H2             19.6975302505       35.7667724405       79.6081277522  TIP3      968             0.0000000000
     20279      1105  TIP3      OH2            25.0268480269       34.8763485541       81.2490872849  TIP3      969             0.0000000000
     20280      1105  TIP3      H1             25.9522187331       34.5806753616       81.1490294159  TIP3      969             0.0000000000
     20281      1105  TIP3      H2             24.6269090133       34.4016463663       80.4923175261  TIP3      969             0.0000000000
     20282      1106  TIP3      OH2            28.6168368655       34.8695707190       63.5045106019  TIP3      970             0.0000000000
     20283      1106  TIP3      H1             28.5754842306       34.4532283970       62.6321932867  TIP3      970             0.0000000000
     20284      1106  TIP3      H2             29.3680991359       35.4898972683       63.4060241732  TIP3      970             0.0000000000
     20285      1107  TIP3      OH2            31.1373872984       33.9252398320       79.9982640790  TIP3      971             0.0000000000
     20286      1107  TIP3      H1             30.9735959092       33.0512810858       80.4282731958  TIP3      971             0.0000000000
     20287      1107  TIP3      H2             32.0556161709       34.0722123009       80.3241017059  TIP3      971             0.0000000000
     20288      1108  TIP3      OH2            33.8870963896       35.0528238290       63.4443468980  TIP3      972             0.0000000000
     20289      1108  TIP3      H1             34.0957259756       34.1026845784       63.4197418685  TIP3      972             0.0000000000
     20290      1108  TIP3      H2             34.1178263613       35.3998775666       62.5683479608  TIP3      972             0.0000000000
     20291      1109  TIP3      OH2            20.0265004961       30.0669281591       80.6521539633  TIP3      973             0.0000000000
     20292      1109  TIP3      H1             19.3984908750       29.4913207369       81.1072003585  TIP3      973             0.0000000000
     20293      1109  TIP3      H2             19.5120982627       30.3948728549       79.8767314825  TIP3      973             0.0000000000
     20294      1110  TIP3      OH2            24.5541098966       30.5584567516       62.8135055711  TIP3      974             0.0000000000
     20295      1110  TIP3      H1             23.9464367553       29.8380050968       62.5548647010  TIP3      974             0.0000000000
     20296      1110  TIP3      H2             24.6955206834       31.0253443783       61.9747445659  TIP3      974             0.0000000000
     20297      1111  TIP3      OH2            26.8421888341       30.0113188294       79.6582399452  TIP3      975             0.0000000000
     20298      1111  TIP3      H1             26.6111580200       30.5526755679       78.8676050900  TIP3      975             0.0000000000
     20299      1111  TIP3      H2             27.0087420648       29.1100466549       79.2880381662  TIP3      975             0.0000000000
     20300      1112  TIP3      OH2            32.4713825196       30.0833714271       77.5749931276  TIP3      976             0.0000000000
     20301      1112  TIP3      H1             33.3684228251       30.4881484463       77.5361121666  TIP3      976             0.0000000000
     20302      1112  TIP3      H2             31.9437049356       30.9009431319       77.5161854309  TIP3      976             0.0000000000
     20303      1113  TIP3      OH2            21.1568636153       26.9144257476       80.1308893016  TIP3      977             0.0000000000
     20304      1113  TIP3      H1             21.6866958059       26.2399908320       80.5856366199  TIP3      977             0.0000000000
     20305      1113  TIP3      H2             21.4830298113       27.7320868743       80.5539664059  TIP3      977             0.0000000000
     20306      1114  TIP3      OH2            25.7920991818       28.1223864701       65.9261739758  TIP3      978             0.0000000000
     20307      1114  TIP3      H1             24.9892313123       28.6561269532       65.7618159825  TIP3      978             0.0000000000
     20308      1114  TIP3      H2             25.5519532987       27.2826928047       65.5035095536  TIP3      978             0.0000000000
     20309      1115  TIP3      OH2            25.1040852489       26.2278810342       77.2906070007  TIP3      979             0.0000000000
     20310      1115  TIP3      H1             24.6108037810       26.6359769686       78.0198592544  TIP3      979             0.0000000000
     20311      1115  TIP3      H2             25.0929849927       26.9087768509       76.6007161112  TIP3      979             0.0000000000
     20312      1116  TIP3      OH2            30.4014599526       29.0807405812       80.5606839718  TIP3      980             0.0000000000
     20313      1116  TIP3      H1             31.0725881509       28.5668830563       80.0723459445  TIP3      980             0.0000000000
     20314      1116  TIP3      H2             30.0331532666       28.4382857466       81.1737025266  TIP3      980             0.0000000000
     20315      1117  TIP3      OH2            35.5956245842       28.9106280259       62.3601966190  TIP3      981             0.0000000000
     20316      1117  TIP3      H1             34.7409832179       28.4805422902       62.0833390510  TIP3      981             0.0000000000
     20317      1117  TIP3      H2             36.2023646293       28.3326999143       61.8757946977  TIP3      981             0.0000000000
     20318      1118  TIP3      OH2            25.9409556374       23.8650340230       78.1941629464  TIP3      982             0.0000000000
     20319      1118  TIP3      H1             26.0479814568       23.2219320723       77.4586821266  TIP3      982             0.0000000000
     20320      1118  TIP3      H2             25.7382459031       24.6954949792       77.6974364157  TIP3      982             0.0000000000
     20321      1119  TIP3      OH2            26.1707241674       22.0865923645       76.0920992300  TIP3      983             0.0000000000
     20322      1119  TIP3      H1             26.5510623073       22.0036901428       75.2040154089  TIP3      983             0.0000000000
     20323      1119  TIP3      H2             25.2076911537       22.0663691207       75.8799014493  TIP3      983             0.0000000000
     20324      1120  TIP3      OH2            27.5615982325       27.9264838882       76.2237699987  TIP3      984             0.0000000000
     20325      1120  TIP3      H1             28.3092744220       28.5405321407       76.3050687359  TIP3      984             0.0000000000
     20326      1120  TIP3      H2             26.8184150952       28.5478554215       76.0983877001  TIP3      984             0.0000000000
     20327      1121  TIP3      OH2            31.0872466691       25.6575086616       81.2236913965  TIP3      985             0.0000000000
     20328      1121  TIP3      H1             31.3152799663       24.7605212806       81.5618791056  TIP3      985             0.0000000000
     20329      1121  TIP3      H2             31.9581997308       25.9855748114       80.9578015007  TIP3      985             0.0000000000
     20330      1122  TIP3      OH2            33.1358516143       28.4597467078       79.5540810893  TIP3      986             0.0000000000
     20331      1122  TIP3      H1             32.7616964643       28.9653387992       78.7940844177  TIP3      986             0.0000000000
     20332      1122  TIP3      H2             34.0687355274       28.3378832779       79.2948336512  TIP3      986             0.0000000000
     20333      1123  TIP3      OH2            24.0103684102       24.8988893516       80.3378347088  TIP3      987             0.0000000000
     20334      1123  TIP3      H1             23.2970399245       24.3212130866       79.9810121525  TIP3      987             0.0000000000
     20335      1123  TIP3      H2             24.7096660452       24.8085769443       79.6700102619  TIP3      987             0.0000000000
     20336      1124  TIP3      OH2            26.7836851151       19.3844664728       76.1967491781  TIP3      988             0.0000000000
     20337      1124  TIP3      H1             26.4958514063       20.3103264834       76.3185930592  TIP3      988             0.0000000000
     20338      1124  TIP3      H2             25.9753561155       18.9766070063       75.8892612249  TIP3      988             0.0000000000
     20339      1125  TIP3      OH2            27.7899721929       23.6786252851       80.2713768372  TIP3      989             0.0000000000
     20340      1125  TIP3      H1             27.1364794028       23.4549347631       80.9646725821  TIP3      989             0.0000000000
     20341      1125  TIP3      H2             27.2119747520       23.6261327334       79.4776663655  TIP3      989             0.0000000000
     20342      1126  TIP3      OH2            30.2399697961       23.2129003978       79.2635368768  TIP3      990             0.0000000000
     20343      1126  TIP3      H1             29.3080619363       23.2027087763       79.5673684209  TIP3      990             0.0000000000
     20344      1126  TIP3      H2             30.6082752501       22.5206073619       79.8544807972  TIP3      990             0.0000000000
     20345      1127  TIP3      OH2            31.3467020749       21.1611203292       80.7640267573  TIP3      991             0.0000000000
     20346      1127  TIP3      H1             31.8346525967       20.3477488991       81.0202285058  TIP3      991             0.0000000000
     20347      1127  TIP3      H2             31.6513075483       21.8207379110       81.4178757260  TIP3      991             0.0000000000
     20348      1128  TIP3      OH2            22.0454081513       23.0170368408       80.2513948249  TIP3      992             0.0000000000
     20349      1128  TIP3      H1             21.9357335993       22.1803620953       79.7689734510  TIP3      992             0.0000000000
     20350      1128  TIP3      H2             22.0122285534       22.6795329156       81.1828662574  TIP3      992             0.0000000000
     20351      1129  TIP3      OH2            26.4354122096       18.7248312276       78.8600873422  TIP3      993             0.0000000000
     20352      1129  TIP3      H1             27.3204879513       18.3273431458       78.9375136736  TIP3      993             0.0000000000
     20353      1129  TIP3      H2             26.3610661179       18.7049689186       77.8870946775  TIP3      993             0.0000000000
     20354      1130  TIP3      OH2            26.4137439474       19.9968875368       81.7142215809  TIP3      994             0.0000000000
     20355      1130  TIP3      H1             26.3804591135       19.6185946941       80.8131631070  TIP3      994             0.0000000000
     20356      1130  TIP3      H2             26.2852918915       20.9421599310       81.5015644342  TIP3      994             0.0000000000
     20357      1131  TIP3      OH2            20.0295655760       32.0844982544       63.8736927635  TIP3      995             0.0000000000
     20358      1131  TIP3      H1             20.9788335280       32.2864749763       63.8344007480  TIP3      995             0.0000000000
     20359      1131  TIP3      H2             20.0031990316       31.2417930256       63.3876375156  TIP3      995             0.0000000000
     20360      1132  TIP3      OH2            18.8472907976       37.3308272807       68.8636012082  TIP3      996             0.0000000000
     20361      1132  TIP3      H1             18.1835184286       36.8130623783       68.3732119715  TIP3      996             0.0000000000
     20362      1132  TIP3      H2             19.1645223943       36.6288362063       69.4700709783  TIP3      996             0.0000000000
     20363      1133  TIP3      OH2            19.6196255250       35.4479500017       70.6578387809  TIP3      997             0.0000000000
     20364      1133  TIP3      H1             19.0367251629       34.6958487217       70.8488259893  TIP3      997             0.0000000000
     20365      1133  TIP3      H2             19.9013040746       35.6748008841       71.5726565922  TIP3      997             0.0000000000
     20366      1134  TIP3      OH2            37.1376451688       36.3496351964       73.3321515727  TIP3      998             0.0000000000
     20367      1134  TIP3      H1             37.7056512437       36.4549652015       74.1103515377  TIP3      998             0.0000000000
     20368      1134  TIP3      H2             36.8940183817       37.2638268505       73.1203719241  TIP3      998             0.0000000000
     20369      1135  TIP3      OH2            37.1892410871       35.4687467414       76.5381076143  TIP3      999             0.0000000000
     20370      1135  TIP3      H1             36.6679452899       34.8591028995       75.9653625543  TIP3      999             0.0000000000
     20371      1135  TIP3      H2             37.5072824977       34.8267643514       77.2123841226  TIP3      999             0.0000000000
     20372      1136  TIP3      OH2            35.6508084646       31.4833059014       81.3434492326  TIP3      1000            0.0000000000
     20373      1136  TIP3      H1             34.7596368680       31.5848759943       81.7529869534  TIP3      1000            0.0000000000
     20374      1136  TIP3      H2             36.0419535368       32.3482322260       81.6188038711  TIP3      1000            0.0000000000
     20375      1137  TIP3      OH2            36.4526692903       29.6540860926       66.6084268483  TIP3      1001            0.0000000000
     20376      1137  TIP3      H1             37.1089887256       30.2596978682       67.0084389302  TIP3      1001            0.0000000000
     20377      1137  TIP3      H2             36.3498562039       29.0241185401       67.3488132288  TIP3      1001            0.0000000000
     20378      1138  TIP3      OH2            37.1168020107       27.8215488146       68.8352540631  TIP3      1002            0.0000000000
     20379      1138  TIP3      H1             36.3699336473       27.1753889265       68.7694437811  TIP3      1002            0.0000000000
     20380      1138  TIP3      H2             36.7955625725       28.3718327085       69.5841747839  TIP3      1002            0.0000000000
     20381      1139  TIP3      OH2            38.0538627273       30.7051748315       73.6881504773  TIP3      1003            0.0000000000
     20382      1139  TIP3      H1             38.2937291074       29.8012542033       73.3946097545  TIP3      1003            0.0000000000
     20383      1139  TIP3      H2             37.2436960759       30.8615813585       73.1808651342  TIP3      1003            0.0000000000
     20384      1140  TIP3      OH2            35.6020838874       33.4586893634       75.7231434990  TIP3      1004            0.0000000000
     20385      1140  TIP3      H1             34.9298294989       33.9506730075       76.2307597330  TIP3      1004            0.0000000000
     20386      1140  TIP3      H2             35.1366362730       33.2938486803       74.8660519218  TIP3      1004            0.0000000000
     20387      1141  TIP3      OH2            37.8142870043       28.2153322541       64.7340219772  TIP3      1005            0.0000000000
     20388      1141  TIP3      H1             37.1775786951       28.3963157993       64.0214748020  TIP3      1005            0.0000000000
     20389      1141  TIP3      H2             37.4901689745       28.8586117927       65.3886447984  TIP3      1005            0.0000000000
     20390      1142  TIP3      OH2            34.9873750986       26.2227208042       68.8638764206  TIP3      1006            0.0000000000
     20391      1142  TIP3      H1             34.8371554474       25.3323112060       68.4905572421  TIP3      1006            0.0000000000
     20392      1142  TIP3      H2             34.6904240589       26.0726693988       69.7966960136  TIP3      1006            0.0000000000
     20393      1143  TIP3      OH2            19.8324722276       28.5294048833       73.3458325333  TIP3      1007            0.0000000000
     20394      1143  TIP3      H1             19.8926235174       28.2554720046       72.3935853701  TIP3      1007            0.0000000000
     20395      1143  TIP3      H2             20.7153120432       28.1783077300       73.6053515767  TIP3      1007            0.0000000000
     20396      1144  TIP3      OH2            36.0320738016       28.0917982245       78.9707419010  TIP3      1008            0.0000000000
     20397      1144  TIP3      H1             36.3264807661       27.2277770050       79.3396870662  TIP3      1008            0.0000000000
     20398      1144  TIP3      H2             36.7099358493       28.2459347966       78.2804258114  TIP3      1008            0.0000000000
     20399      1145  TIP3      OH2            37.2124325793       25.8130023954       79.9627261301  TIP3      1009            0.0000000000
     20400      1145  TIP3      H1             36.4212767214       25.3893623270       79.5594995073  TIP3      1009            0.0000000000
     20401      1145  TIP3      H2             37.9036741576       25.1915208557       79.6493162573  TIP3      1009            0.0000000000
     20402      1146  TIP3      OH2            34.5445805646       24.0173749425       67.5515020596  TIP3      1010            0.0000000000
     20403      1146  TIP3      H1             34.6406469540       23.0547987429       67.7124311303  TIP3      1010            0.0000000000
     20404      1146  TIP3      H2             35.3440906289       24.1432270222       67.0072508392  TIP3      1010            0.0000000000
     20405      1147  TIP3      OH2            35.5950092450       24.2337278243       72.7392542943  TIP3      1011            0.0000000000
     20406      1147  TIP3      H1             36.5518533809       24.4414401901       72.8824476616  TIP3      1011            0.0000000000
     20407      1147  TIP3      H2             35.2494545692       24.6205857356       73.5790760772  TIP3      1011            0.0000000000
     20408      1148  TIP3      OH2            35.2113673818       25.4273387287       75.0457069652  TIP3      1012            0.0000000000
     20409      1148  TIP3      H1             34.4361959788       25.7232073100       75.5539886207  TIP3      1012            0.0000000000
     20410      1148  TIP3      H2             35.7706562072       26.2356443762       75.0856107567  TIP3      1012            0.0000000000
     20411      1149  TIP3      OH2            19.9006171946       23.7303842135       78.9373316042  TIP3      1013            0.0000000000
     20412      1149  TIP3      H1             20.5595696337       23.6456654586       79.6649059139  TIP3      1013            0.0000000000
     20413      1149  TIP3      H2             19.3690164479       22.9079880534       79.0181158522  TIP3      1013            0.0000000000
     20414      1150  TIP3      OH2            38.0713803253       19.7037027323       80.7732105925  TIP3      1014            0.0000000000
     20415      1150  TIP3      H1             37.6560577117       18.9524955162       80.3315163359  TIP3      1014            0.0000000000
     20416      1150  TIP3      H2             37.7722273260       20.4457958237       80.1951105460  TIP3      1014            0.0000000000
     20417      1151  TIP3      OH2            35.5275943746       21.5241651920       67.3908188652  TIP3      1015            0.0000000000
     20418      1151  TIP3      H1             35.6778993555       21.2326315287       68.3051944495  TIP3      1015            0.0000000000
     20419      1151  TIP3      H2             34.9758886342       20.7934239013       67.0486775304  TIP3      1015            0.0000000000
     20420      1152  TIP3      OH2            20.6739804015       21.8243501362       73.2181053253  TIP3      1016            0.0000000000
     20421      1152  TIP3      H1             21.0650168851       20.9349235585       73.1190794256  TIP3      1016            0.0000000000
     20422      1152  TIP3      H2             21.4272208828       22.4245816498       73.0710684403  TIP3      1016            0.0000000000
     20423      1153  TIP3      OH2            19.0345742088       25.1638862920       73.2313324974  TIP3      1017            0.0000000000
     20424      1153  TIP3      H1             19.8187702143       25.0880044155       72.6476300726  TIP3      1017            0.0000000000
     20425      1153  TIP3      H2             18.9617445774       26.1204425954       73.3278887490  TIP3      1017            0.0000000000
     20426      1154  TIP3      OH2            37.0017798042       21.6439727719       79.3267078697  TIP3      1018            0.0000000000
     20427      1154  TIP3      H1             36.3084598058       21.8088138475       80.0021396320  TIP3      1018            0.0000000000
     20428      1154  TIP3      H2             36.4457129270       21.5004993157       78.5371936404  TIP3      1018            0.0000000000
     20429      1155  TIP3      OH2            18.8973682397       21.2109584020       67.4762708025  TIP3      1019            0.0000000000
     20430      1155  TIP3      H1             18.0759154871       21.1909554210       66.9680468007  TIP3      1019            0.0000000000
     20431      1155  TIP3      H2             19.5658534108       21.3677070569       66.7727794157  TIP3      1019            0.0000000000
     20432      1156  TIP3      OH2            34.2300019543       36.5718724835       69.4454687455  TIP3      1020            0.0000000000
     20433      1156  TIP3      H1             34.6239936065       36.0281776807       68.7172059158  TIP3      1020            0.0000000000
     20434      1156  TIP3      H2             35.0285458635       36.8701141329       69.8963849816  TIP3      1020            0.0000000000
     20435      1157  TIP3      OH2            19.3502123963       19.8725257859       75.8106322133  TIP3      1021            0.0000000000
     20436      1157  TIP3      H1             18.6522591746       19.4874158902       76.3718732947  TIP3      1021            0.0000000000
     20437      1157  TIP3      H2             18.8970247997       20.5668183184       75.3060621740  TIP3      1021            0.0000000000
     20438      1158  TIP3      OH2            21.6046829177       33.0816749747       79.5738761548  TIP3      1022            0.0000000000
     20439      1158  TIP3      H1             20.8067692589       33.5339993846       79.2700747544  TIP3      1022            0.0000000000
     20440      1158  TIP3      H2             21.3672192324       32.8237069463       80.4695003330  TIP3      1022            0.0000000000
     20441      1159  TIP3      OH2            24.3481084321       34.4700854063       76.2179920180  TIP3      1023            0.0000000000
     20442      1159  TIP3      H1             24.2504926453       35.3796563510       75.8548424245  TIP3      1023            0.0000000000
     20443      1159  TIP3      H2             25.3090722157       34.3537131132       76.0687773732  TIP3      1023            0.0000000000
     20444      1160  TIP3      OH2            28.5604908288       35.6722793659       78.6941161047  TIP3      1024            0.0000000000
     20445      1160  TIP3      H1             28.7069132010       35.4898582846       79.6454751043  TIP3      1024            0.0000000000
     20446      1160  TIP3      H2             29.4375712219       36.0231697973       78.4301629736  TIP3      1024            0.0000000000
     20447      1161  TIP3      OH2            30.7970385210       37.2272061890       78.2395825651  TIP3      1025            0.0000000000
     20448      1161  TIP3      H1             31.5356382569       36.9060205627       77.6917496554  TIP3      1025            0.0000000000
     20449      1161  TIP3      H2             31.2299964165       37.6681696053       78.9915525142  TIP3      1025            0.0000000000
     20450      1162  TIP3      OH2            35.9307197761       19.2788357180       77.3703424744  TIP3      1026            0.0000000000
     20451      1162  TIP3      H1             35.2252949931       19.8005918881       76.9573319252  TIP3      1026            0.0000000000
     20452      1162  TIP3      H2             35.8450462229       18.3972983411       76.9749587390  TIP3      1026            0.0000000000
     20453      1163  TIP3      OH2            21.7296323741       37.5485467723       75.8885066474  TIP3      1027            0.0000000000
     20454      1163  TIP3      H1             20.8897442658       37.9296208654       75.5515561303  TIP3      1027            0.0000000000
     20455      1163  TIP3      H2             21.7086115929       37.9075915594       76.7912077943  TIP3      1027            0.0000000000
     20456      1164  TIP3      OH2            24.1207152425       36.9803563618       74.9295853252  TIP3      1028            0.0000000000
     20457      1164  TIP3      H1             23.2087699621       37.2296049265       75.2127411790  TIP3      1028            0.0000000000
     20458      1164  TIP3      H2             24.2929735586       37.6403764332       74.2287467380  TIP3      1028            0.0000000000
     20459      1165  TIP3      OH2            28.9783890052       36.7992834191       74.1742304225  TIP3      1029            0.0000000000
     20460      1165  TIP3      H1             28.1950032100       37.2519053664       73.8189008418  TIP3      1029            0.0000000000
     20461      1165  TIP3      H2             29.1977161949       37.3908295575       74.9262160016  TIP3      1029            0.0000000000
     20462      1166  TIP3      OH2            31.2465497184       35.5972757268       75.6544732808  TIP3      1030            0.0000000000
     20463      1166  TIP3      H1             30.5974470094       36.0091618243       75.0594091711  TIP3      1030            0.0000000000
     20464      1166  TIP3      H2             31.9895668435       36.2273707232       75.5562226387  TIP3      1030            0.0000000000
     20465      1167  TIP3      OH2            33.5627215778       37.1325040540       75.2620708245  TIP3      1031            0.0000000000
     20466      1167  TIP3      H1             33.8523377704       38.0394250916       75.0233330251  TIP3      1031            0.0000000000
     20467      1167  TIP3      H2             33.9386814385       36.6401806190       74.4956600511  TIP3      1031            0.0000000000
     20468      1168  TIP3      OH2            21.2468018899       35.8545615171       72.8208808741  TIP3      1032            0.0000000000
     20469      1168  TIP3      H1             21.0889709531       35.2273699695       73.5567908978  TIP3      1032            0.0000000000
     20470      1168  TIP3      H2             22.1528659259       35.5977504036       72.5461349278  TIP3      1032            0.0000000000
     20471      1169  TIP3      OH2            23.6666975148       35.1243503834       71.6895150731  TIP3      1033            0.0000000000
     20472      1169  TIP3      H1             23.5174113868       34.1572424903       71.7151286397  TIP3      1033            0.0000000000
     20473      1169  TIP3      H2             24.4706037631       35.1761642097       72.2469697020  TIP3      1033            0.0000000000
     20474      1170  TIP3      OH2            26.0200977981       34.6231597525       73.0634127648  TIP3      1034            0.0000000000
     20475      1170  TIP3      H1             26.0064546453       33.7046550850       72.7153216875  TIP3      1034            0.0000000000
     20476      1170  TIP3      H2             26.4729449237       34.5242988912       73.9241393428  TIP3      1034            0.0000000000
     20477      1171  TIP3      OH2            29.0515789231       20.7106854824       71.0265787647  TIP3      1035            0.0000000000
     20478      1171  TIP3      H1             28.5510872084       20.7150395239       71.8560363329  TIP3      1035            0.0000000000
     20479      1171  TIP3      H2             29.4386747654       19.8208095282       71.0530011544  TIP3      1035            0.0000000000
     20480      1172  TIP3      OH2            34.9080289802       18.6654356278       71.4727192374  TIP3      1036            0.0000000000
     20481      1172  TIP3      H1             35.4718783944       19.3697327920       71.0681519015  TIP3      1036            0.0000000000
     20482      1172  TIP3      H2             34.0417861216       19.1181225065       71.4903197435  TIP3      1036            0.0000000000
     20483      1173  TIP3      OH2            36.3835011682       20.5314633469       70.1303966020  TIP3      1037            0.0000000000
     20484      1173  TIP3      H1             36.9774180214       19.8701280200       69.7078417122  TIP3      1037            0.0000000000
     20485      1173  TIP3      H2             37.0501365077       21.2366955660       70.3112661673  TIP3      1037            0.0000000000
     20486      1174  TIP3      OH2            21.8836511135       19.5812229587       69.5502634245  TIP3      1038            0.0000000000
     20487      1174  TIP3      H1             21.0854143465       19.4108128750       69.0199727060  TIP3      1038            0.0000000000
     20488      1174  TIP3      H2             22.3390503863       18.7104053963       69.4637705523  TIP3      1038            0.0000000000
     20489      1175  TIP3      OH2            26.0822632845       18.9342369298       69.5269301806  TIP3      1039            0.0000000000
     20490      1175  TIP3      H1             27.0187667545       18.8933171919       69.2991758269  TIP3      1039            0.0000000000
     20491      1175  TIP3      H2             26.0939309803       19.3586697908       70.3993282852  TIP3      1039            0.0000000000
     20492      1176  TIP3      OH2            32.1626641240       19.5147325398       70.9523674914  TIP3      1040            0.0000000000
     20493      1176  TIP3      H1             32.2645859689       19.3435234044       70.0054114024  TIP3      1040            0.0000000000
     20494      1176  TIP3      H2             31.4980730981       18.8424613006       71.2123099482  TIP3      1040            0.0000000000
     20495      1177  TIP3      OH2            33.5541137729       19.4796265073       66.3986211424  TIP3      1041            0.0000000000
     20496      1177  TIP3      H1             32.8519088173       19.9745883635       66.8695448557  TIP3      1041            0.0000000000
     20497      1177  TIP3      H2             33.2374761609       18.5661226258       66.5646750162  TIP3      1041            0.0000000000
     20498      1178  TIP3      OH2            20.5626130136       35.1669548300       66.4997924651  TIP3      1042            0.0000000000
     20499      1178  TIP3      H1             19.6037433297       35.0504229819       66.4947195712  TIP3      1042            0.0000000000
     20500      1178  TIP3      H2             20.6525812225       36.1156228138       66.2780398618  TIP3      1042            0.0000000000
     20501      1179  TIP3      OH2            22.1108472514       21.7490236441       63.8082396812  TIP3      1043            0.0000000000
     20502      1179  TIP3      H1             21.7522179591       20.8455741931       63.7139320423  TIP3      1043            0.0000000000
     20503      1179  TIP3      H2             22.9824814904       21.6035987680       64.2448560218  TIP3      1043            0.0000000000
     20504      1180  TIP3      OH2            27.5347634295       20.5696320045       66.0893235982  TIP3      1044            0.0000000000
     20505      1180  TIP3      H1             27.9533472564       20.5855437168       66.9777243121  TIP3      1044            0.0000000000
     20506      1180  TIP3      H2             27.4246427609       21.5206101949       65.9649630664  TIP3      1044            0.0000000000
     20507      1181  TIP3      OH2            35.7601154662       35.5438443486       67.5285964653  TIP3      1045            0.0000000000
     20508      1181  TIP3      H1             35.7698273672       34.7747296903       66.9039197769  TIP3      1045            0.0000000000
     20509      1181  TIP3      H2             35.5878885913       36.2548649465       66.8741284782  TIP3      1045            0.0000000000
     20510      1182  TIP3      OH2            21.3830094747       20.0270758291       78.8962543967  TIP3      1046            0.0000000000
     20511      1182  TIP3      H1             20.9532009106       19.1545493701       78.9752789078  TIP3      1046            0.0000000000
     20512      1182  TIP3      H2             22.1320700867       19.9255141155       79.5174817024  TIP3      1046            0.0000000000
     20513      1183  TIP3      OH2            23.5122538084       19.4715283134       80.7211082703  TIP3      1047            0.0000000000
     20514      1183  TIP3      H1             24.3081959672       19.0017996677       80.4256104783  TIP3      1047            0.0000000000
     20515      1183  TIP3      H2             23.0802141312       18.7748352864       81.2519737621  TIP3      1047            0.0000000000
     20516      1184  TIP3      OH2            32.1280982420       18.6658648068       81.1537451554  TIP3      1048            0.0000000000
     20517      1184  TIP3      H1             32.3055866518       18.1543913969       81.9694101891  TIP3      1048            0.0000000000
     20518      1184  TIP3      H2             32.9768971140       18.5614061940       80.6833041132  TIP3      1048            0.0000000000
     20519      1185  TIP3      OH2            35.3862867834       35.0984560312       79.3633744869  TIP3      1049            0.0000000000
     20520      1185  TIP3      H1             34.8371600938       35.0953073161       78.5451227609  TIP3      1049            0.0000000000
     20521      1185  TIP3      H2             35.3536281964       36.0441180137       79.6268596855  TIP3      1049            0.0000000000
     20522      1186  TIP3      OH2            50.2689011466       28.8618364923       69.4140313461  TIP3      1050            0.0000000000
     20523      1186  TIP3      H1             50.2582257193       29.8230316436       69.6155098300  TIP3      1050            0.0000000000
     20524      1186  TIP3      H2             49.3688406012       28.7795040869       69.0714569392  TIP3      1050            0.0000000000
     20525      1187  TIP3      OH2            48.8708921986       27.4264479279       72.6819154204  TIP3      1051            0.0000000000
     20526      1187  TIP3      H1             48.8634388908       27.0672740249       73.5968073638  TIP3      1051            0.0000000000
     20527      1187  TIP3      H2             48.1353811188       26.9880044961       72.2273242152  TIP3      1051            0.0000000000
     20528      1188  TIP3      OH2            40.9603874874       27.2577871544       74.0969260518  TIP3      1052            0.0000000000
     20529      1188  TIP3      H1             41.0024121608       26.4841155500       74.6895731827  TIP3      1052            0.0000000000
     20530      1188  TIP3      H2             41.4160346535       27.9102506982       74.6718519242  TIP3      1052            0.0000000000
     20531      1189  TIP3      OH2            51.8330643654       30.8813353785       71.1877323488  TIP3      1053            0.0000000000
     20532      1189  TIP3      H1             51.6521734526       30.1896807781       71.8395793802  TIP3      1053            0.0000000000
     20533      1189  TIP3      H2             52.1100841473       31.6022103270       71.7780415374  TIP3      1053            0.0000000000
     20534      1190  TIP3      OH2            41.8473425873       32.1920495714       72.0384647110  TIP3      1054            0.0000000000
     20535      1190  TIP3      H1             41.6405579298       31.2413740895       71.9430537877  TIP3      1054            0.0000000000
     20536      1190  TIP3      H2             42.7985422914       32.0960793274       72.2121620734  TIP3      1054            0.0000000000
     20537      1191  TIP3      OH2            38.9995418297       25.7708171382       68.3035455242  TIP3      1055            0.0000000000
     20538      1191  TIP3      H1             38.5717548169       26.6125716677       68.5536979128  TIP3      1055            0.0000000000
     20539      1191  TIP3      H2             38.2147794865       25.2242360843       68.2124721399  TIP3      1055            0.0000000000
     20540      1192  TIP3      OH2            39.6211245326       28.0171958478       70.6046079152  TIP3      1056            0.0000000000
     20541      1192  TIP3      H1             39.6883083991       27.0354985754       70.6336991623  TIP3      1056            0.0000000000
     20542      1192  TIP3      H2             39.3611894072       28.1959057440       69.6942104360  TIP3      1056            0.0000000000
     20543      1193  TIP3      OH2            49.5371152910       36.2145392974       71.5123588421  TIP3      1057            0.0000000000
     20544      1193  TIP3      H1             50.2196017148       35.6683157218       71.0543734636  TIP3      1057            0.0000000000
     20545      1193  TIP3      H2             49.0132172208       35.5090056779       71.9160326031  TIP3      1057            0.0000000000
     20546      1194  TIP3      OH2            46.6507318670       30.3285920574       73.7738137683  TIP3      1058            0.0000000000
     20547      1194  TIP3      H1             46.9939603076       29.8663342584       72.9917294929  TIP3      1058            0.0000000000
     20548      1194  TIP3      H2             47.4645449423       30.8049343212       74.0433759964  TIP3      1058            0.0000000000
     20549      1195  TIP3      OH2            55.3091488875       21.8256458743       73.7875469237  TIP3      1059            0.0000000000
     20550      1195  TIP3      H1             55.3929479003       22.3142635583       74.6366331270  TIP3      1059            0.0000000000
     20551      1195  TIP3      H2             56.1439502708       22.1005563685       73.3751444117  TIP3      1059            0.0000000000
     20552      1196  TIP3      OH2            50.4267938564       24.8062261954       73.8605494240  TIP3      1060            0.0000000000
     20553      1196  TIP3      H1             50.5725991119       23.8544188739       74.0477199946  TIP3      1060            0.0000000000
     20554      1196  TIP3      H2             50.2118106190       24.7590149862       72.9105710215  TIP3      1060            0.0000000000
     20555      1197  TIP3      OH2            43.5396068328       22.4984307254       70.5863119483  TIP3      1061            0.0000000000
     20556      1197  TIP3      H1             43.5976036244       23.3301522857       70.0811660721  TIP3      1061            0.0000000000
     20557      1197  TIP3      H2             43.0365517240       21.9484005312       69.9454736482  TIP3      1061            0.0000000000
     20558      1198  TIP3      OH2            51.0682326215       23.0113439945       69.2417144465  TIP3      1062            0.0000000000
     20559      1198  TIP3      H1             51.6024938225       22.5871847842       69.9555203804  TIP3      1062            0.0000000000
     20560      1198  TIP3      H2             51.7208366501       23.6591769695       68.9281578826  TIP3      1062            0.0000000000
     20561      1199  TIP3      OH2            39.8508995391       25.3055234472       71.2129828741  TIP3      1063            0.0000000000
     20562      1199  TIP3      H1             40.4345140869       24.9140612748       71.8797319504  TIP3      1063            0.0000000000
     20563      1199  TIP3      H2             40.2020757642       24.8574684373       70.4093461461  TIP3      1063            0.0000000000
     20564      1200  TIP3      OH2            44.7557640216       26.5991601263       71.0493646495  TIP3      1064            0.0000000000
     20565      1200  TIP3      H1             45.5876307776       26.1169774581       71.2869196685  TIP3      1064            0.0000000000
     20566      1200  TIP3      H2             44.2301133143       25.8699172726       70.6729968215  TIP3      1064            0.0000000000
     20567      1201  TIP3      OH2            55.5033224102       23.1622089009       76.1298120103  TIP3      1065            0.0000000000
     20568      1201  TIP3      H1             55.2441176666       24.0131719665       75.7068669174  TIP3      1065            0.0000000000
     20569      1201  TIP3      H2             55.8733397575       23.4794615092       76.9684043044  TIP3      1065            0.0000000000
     20570      1202  TIP3      OH2            42.5150303982       21.7597774364       74.9303163886  TIP3      1066            0.0000000000
     20571      1202  TIP3      H1             42.3409351072       22.2635465511       74.1000451240  TIP3      1066            0.0000000000
     20572      1202  TIP3      H2             41.7047095646       21.9877101690       75.4310935220  TIP3      1066            0.0000000000
     20573      1203  TIP3      OH2            49.3451900080       31.3316833953       68.5043201940  TIP3      1067            0.0000000000
     20574      1203  TIP3      H1             49.0009057323       31.3470881310       67.5876860355  TIP3      1067            0.0000000000
     20575      1203  TIP3      H2             49.1352613641       32.2400954870       68.8023761937  TIP3      1067            0.0000000000
     20576      1204  TIP3      OH2            44.3568966399       29.3643463164       74.8021516803  TIP3      1068            0.0000000000
     20577      1204  TIP3      H1             43.7210947505       30.0969799046       74.9715117119  TIP3      1068            0.0000000000
     20578      1204  TIP3      H2             45.1141874637       29.8635437319       74.4132074505  TIP3      1068            0.0000000000
     20579      1205  TIP3      OH2            52.8941034438       22.5915581302       71.1531991262  TIP3      1069            0.0000000000
     20580      1205  TIP3      H1             52.9924754956       21.8051282484       71.7096271658  TIP3      1069            0.0000000000
     20581      1205  TIP3      H2             53.6975623718       23.0736346086       71.3950864649  TIP3      1069            0.0000000000
     20582      1206  TIP3      OH2            42.0973654634       23.4080313269       72.7972057703  TIP3      1070            0.0000000000
     20583      1206  TIP3      H1             42.5750585125       24.2184813738       73.0922163180  TIP3      1070            0.0000000000
     20584      1206  TIP3      H2             42.6295595674       23.1237688635       72.0145602432  TIP3      1070            0.0000000000
     20585      1207  TIP3      OH2            43.0135023687       31.4831750215       75.6307833168  TIP3      1071            0.0000000000
     20586      1207  TIP3      H1             42.7332732608       32.2015207534       75.0483116294  TIP3      1071            0.0000000000
     20587      1207  TIP3      H2             42.2057516030       31.3305274802       76.1757287754  TIP3      1071            0.0000000000
     20588      1208  TIP3      OH2            38.9132185166       30.8730012366       67.1362327417  TIP3      1072            0.0000000000
     20589      1208  TIP3      H1             39.0754328588       31.1169810592       66.2158459334  TIP3      1072            0.0000000000
     20590      1208  TIP3      H2             38.9832380476       31.7595121248       67.5667843358  TIP3      1072            0.0000000000
     20591      1209  TIP3      OH2            52.6998412907       32.7442820836       73.2809294009  TIP3      1073            0.0000000000
     20592      1209  TIP3      H1             51.7750752788       32.9491556911       73.5643966798  TIP3      1073            0.0000000000
     20593      1209  TIP3      H2             52.9293625985       33.6162329948       72.9170135305  TIP3      1073            0.0000000000
     20594      1210  TIP3      OH2            52.6366550620       21.2008521116       74.7244912701  TIP3      1074            0.0000000000
     20595      1210  TIP3      H1             51.9806053434       21.3268475847       74.0100612741  TIP3      1074            0.0000000000
     20596      1210  TIP3      H2             53.4880439937       21.3768232659       74.2763801748  TIP3      1074            0.0000000000
     20597      1211  TIP3      OH2            45.6942275660       18.6740988068       71.7580906596  TIP3      1075            0.0000000000
     20598      1211  TIP3      H1             45.4944250797       17.7659667383       72.0680237847  TIP3      1075            0.0000000000
     20599      1211  TIP3      H2             44.9461796554       19.1586929758       72.1839426518  TIP3      1075            0.0000000000
     20600      1212  TIP3      OH2            51.2540563206       34.6956756832       70.0577253333  TIP3      1076            0.0000000000
     20601      1212  TIP3      H1             51.4899702163       33.9116159785       69.5218143443  TIP3      1076            0.0000000000
     20602      1212  TIP3      H2             51.8836283198       35.3591452485       69.6752604435  TIP3      1076            0.0000000000
     20603      1213  TIP3      OH2            52.3884000391       32.2869343555       68.5795567963  TIP3      1077            0.0000000000
     20604      1213  TIP3      H1             52.3882747413       31.6738021788       67.8136170049  TIP3      1077            0.0000000000
     20605      1213  TIP3      H2             52.1210517676       31.6934952864       69.3068163346  TIP3      1077            0.0000000000
     20606      1214  TIP3      OH2            53.6263729204       30.8899224069       76.9171137057  TIP3      1078            0.0000000000
     20607      1214  TIP3      H1             53.7612221874       30.2160313934       76.2097531976  TIP3      1078            0.0000000000
     20608      1214  TIP3      H2             53.8578210133       31.7098884322       76.4307226250  TIP3      1078            0.0000000000
     20609      1215  TIP3      OH2            48.6527186922       27.9815157867       66.7120751548  TIP3      1079            0.0000000000
     20610      1215  TIP3      H1             47.8605101785       28.4135114271       66.3552883455  TIP3      1079            0.0000000000
     20611      1215  TIP3      H2             49.3101286811       28.6879251999       66.6345176337  TIP3      1079            0.0000000000
     20612      1216  TIP3      OH2            56.0310635535       27.5681850660       74.9039320706  TIP3      1080            0.0000000000
     20613      1216  TIP3      H1             55.3704117831       28.2909432532       74.7989377185  TIP3      1080            0.0000000000
     20614      1216  TIP3      H2             56.6362651072       27.8556984392       74.1855616998  TIP3      1080            0.0000000000
     20615      1217  TIP3      OH2            52.2304316007       27.8669208437       67.7745050517  TIP3      1081            0.0000000000
     20616      1217  TIP3      H1             51.5765246729       28.2861277447       68.3838077364  TIP3      1081            0.0000000000
     20617      1217  TIP3      H2             52.8947009062       27.5628258791       68.4318333185  TIP3      1081            0.0000000000
     20618      1218  TIP3      OH2            51.8687453653       26.7683426147       76.9957789804  TIP3      1082            0.0000000000
     20619      1218  TIP3      H1             51.8348308416       27.7309053976       77.0831661412  TIP3      1082            0.0000000000
     20620      1218  TIP3      H2             51.2084043936       26.6469852087       76.2944954451  TIP3      1082            0.0000000000
     20621      1219  TIP3      OH2            44.2242460511       28.2949756172       68.9968290586  TIP3      1083            0.0000000000
     20622      1219  TIP3      H1             43.6530671435       27.8563848058       68.3369664633  TIP3      1083            0.0000000000
     20623      1219  TIP3      H2             44.3291985433       27.6300517653       69.7135420686  TIP3      1083            0.0000000000
     20624      1220  TIP3      OH2            44.6646217264       32.0095523860       72.3723645081  TIP3      1084            0.0000000000
     20625      1220  TIP3      H1             44.6920742630       31.8521026278       71.4017867181  TIP3      1084            0.0000000000
     20626      1220  TIP3      H2             45.4005307920       31.4685872151       72.7044459518  TIP3      1084            0.0000000000
     20627      1221  TIP3      OH2            43.6031668523       27.4215596728       73.2350617075  TIP3      1085            0.0000000000
     20628      1221  TIP3      H1             44.0259596612       27.3869934641       72.3442990936  TIP3      1085            0.0000000000
     20629      1221  TIP3      H2             43.9419945534       28.2656604701       73.6091545018  TIP3      1085            0.0000000000
     20630      1222  TIP3      OH2            50.2690106764       33.2486694769       74.1090994342  TIP3      1086            0.0000000000
     20631      1222  TIP3      H1             49.8426997569       33.9544416644       74.6242225227  TIP3      1086            0.0000000000
     20632      1222  TIP3      H2             49.9087828817       32.4440756863       74.5370038070  TIP3      1086            0.0000000000
     20633      1223  TIP3      OH2            44.6952414689       32.1599009984       77.5809360890  TIP3      1087            0.0000000000
     20634      1223  TIP3      H1             44.5729919041       33.0366179266       77.1999954672  TIP3      1087            0.0000000000
     20635      1223  TIP3      H2             44.3137474449       31.6336182624       76.8439294637  TIP3      1087            0.0000000000
     20636      1224  TIP3      OH2            51.3064891004       27.1515466495       65.3276282792  TIP3      1088            0.0000000000
     20637      1224  TIP3      H1             51.5646644382       27.3765066807       66.2542826445  TIP3      1088            0.0000000000
     20638      1224  TIP3      H2             51.1529543314       28.0274516939       64.9361375076  TIP3      1088            0.0000000000
     20639      1225  TIP3      OH2            41.7508853751       28.2027647164       76.5146753628  TIP3      1089            0.0000000000
     20640      1225  TIP3      H1             42.2365968100       28.8296908231       77.0645798128  TIP3      1089            0.0000000000
     20641      1225  TIP3      H2             41.0155234094       27.9874427205       77.1098831030  TIP3      1089            0.0000000000
     20642      1226  TIP3      OH2            48.7168263749       33.8398276734       69.6370782589  TIP3      1090            0.0000000000
     20643      1226  TIP3      H1             49.5854872125       34.2484517689       69.8225056073  TIP3      1090            0.0000000000
     20644      1226  TIP3      H2             48.1717964190       34.6160093076       69.4491396150  TIP3      1090            0.0000000000
     20645      1227  TIP3      OH2            42.5124416938       34.4546338718       78.7774895508  TIP3      1091            0.0000000000
     20646      1227  TIP3      H1             42.5729798921       34.6439232339       77.8164594676  TIP3      1091            0.0000000000
     20647      1227  TIP3      H2             41.5817159374       34.1604266645       78.8341366241  TIP3      1091            0.0000000000
     20648      1228  TIP3      OH2            54.1120453010       19.0203112020       66.0006863705  TIP3      1092            0.0000000000
     20649      1228  TIP3      H1             53.1396690046       19.0950537088       66.1743710165  TIP3      1092            0.0000000000
     20650      1228  TIP3      H2             54.1022351090       19.1973592386       65.0536865731  TIP3      1092            0.0000000000
     20651      1229  TIP3      OH2            42.5908570451       27.2424697660       67.0186228088  TIP3      1093            0.0000000000
     20652      1229  TIP3      H1             42.0688225911       28.0410256838       66.8512565914  TIP3      1093            0.0000000000
     20653      1229  TIP3      H2             41.9093774219       26.5574042608       67.0351194455  TIP3      1093            0.0000000000
     20654      1230  TIP3      OH2            56.0071359498       33.5170171232       63.9423886687  TIP3      1094            0.0000000000
     20655      1230  TIP3      H1             56.1632514011       34.0730865369       63.1625369588  TIP3      1094            0.0000000000
     20656      1230  TIP3      H2             56.7512076446       32.8828571264       63.8617820626  TIP3      1094            0.0000000000
     20657      1231  TIP3      OH2            38.8614151611       30.3444297314       76.1870631174  TIP3      1095            0.0000000000
     20658      1231  TIP3      H1             38.5519933769       30.6404488822       75.2923299486  TIP3      1095            0.0000000000
     20659      1231  TIP3      H2             38.9634373506       29.4029314705       75.9932053044  TIP3      1095            0.0000000000
     20660      1232  TIP3      OH2            38.7548169278       33.7196928969       72.4177050461  TIP3      1096            0.0000000000
     20661      1232  TIP3      H1             39.1622650372       32.8743257532       72.1672726773  TIP3      1096            0.0000000000
     20662      1232  TIP3      H2             38.4682578050       33.5098002261       73.3209791259  TIP3      1096            0.0000000000
     20663      1233  TIP3      OH2            56.3422796006       33.4897942780       78.5530762527  TIP3      1097            0.0000000000
     20664      1233  TIP3      H1             56.2948322984       32.5473814636       78.7766358734  TIP3      1097            0.0000000000
     20665      1233  TIP3      H2             55.4437701753       33.7452380494       78.8762902713  TIP3      1097            0.0000000000
     20666      1234  TIP3      OH2            47.5180958083       33.1389246262       77.5281916860  TIP3      1098            0.0000000000
     20667      1234  TIP3      H1             47.5863698519       33.9058177926       78.1236330696  TIP3      1098            0.0000000000
     20668      1234  TIP3      H2             46.6150772026       32.8039752800       77.6831936808  TIP3      1098            0.0000000000
     20669      1235  TIP3      OH2            47.2237742906       36.9272806960       67.4063569259  TIP3      1099            0.0000000000
     20670      1235  TIP3      H1             46.8819868459       36.9074625166       66.4965964299  TIP3      1099            0.0000000000
     20671      1235  TIP3      H2             47.7307405046       37.7598554688       67.4586230092  TIP3      1099            0.0000000000
     20672      1236  TIP3      OH2            41.4900189965       35.8782750901       69.2336300732  TIP3      1100            0.0000000000
     20673      1236  TIP3      H1             41.9600441672       35.6999480957       70.0836209651  TIP3      1100            0.0000000000
     20674      1236  TIP3      H2             40.5875951958       35.6321199951       69.4888079387  TIP3      1100            0.0000000000
     20675      1237  TIP3      OH2            51.5149913725       36.1776853544       64.1299145671  TIP3      1101            0.0000000000
     20676      1237  TIP3      H1             51.8572807628       35.3026314533       63.8404180470  TIP3      1101            0.0000000000
     20677      1237  TIP3      H2             50.5673693634       36.0250278869       63.9880638117  TIP3      1101            0.0000000000
     20678      1238  TIP3      OH2            50.2534122879       36.3464314577       67.3023719229  TIP3      1102            0.0000000000
     20679      1238  TIP3      H1             49.3216795657       36.2999408689       67.0320207198  TIP3      1102            0.0000000000
     20680      1238  TIP3      H2             50.4863312976       35.4114347256       67.2925527224  TIP3      1102            0.0000000000
     20681      1239  TIP3      OH2            53.5291173210       25.1203861785       78.9140102779  TIP3      1103            0.0000000000
     20682      1239  TIP3      H1             52.9686572923       25.5555854909       78.2342694021  TIP3      1103            0.0000000000
     20683      1239  TIP3      H2             53.5039479451       24.1889630865       78.5898700358  TIP3      1103            0.0000000000
     20684      1240  TIP3      OH2            41.0035364582       31.2832134827       77.3380501458  TIP3      1104            0.0000000000
     20685      1240  TIP3      H1             40.9264665928       30.5281137537       77.9441280360  TIP3      1104            0.0000000000
     20686      1240  TIP3      H2             40.1424393247       31.1856592862       76.8586370105  TIP3      1104            0.0000000000
     20687      1241  TIP3      OH2            43.6468911671       19.9764405476       73.1670379210  TIP3      1105            0.0000000000
     20688      1241  TIP3      H1             42.7312974126       19.9788459573       72.8175423367  TIP3      1105            0.0000000000
     20689      1241  TIP3      H2             43.5002513331       20.4958652288       73.9865087937  TIP3      1105            0.0000000000
     20690      1242  TIP3      OH2            48.5097364801       19.4757431187       76.5771323011  TIP3      1106            0.0000000000
     20691      1242  TIP3      H1             48.8669798814       19.0766344488       77.3968092166  TIP3      1106            0.0000000000
     20692      1242  TIP3      H2             47.5557835866       19.5665174791       76.7981970272  TIP3      1106            0.0000000000
     20693      1243  TIP3      OH2            50.8871859322       23.8962830318       77.2945231346  TIP3      1107            0.0000000000
     20694      1243  TIP3      H1             50.3603164194       23.5966089191       78.0698340608  TIP3      1107            0.0000000000
     20695      1243  TIP3      H2             50.4989184898       24.7588134518       77.1142378718  TIP3      1107            0.0000000000
     20696      1244  TIP3      OH2            43.6269529574       25.0750638032       74.3941472043  TIP3      1108            0.0000000000
     20697      1244  TIP3      H1             42.9100234230       25.0754038652       75.0564402317  TIP3      1108            0.0000000000
     20698      1244  TIP3      H2             43.4513252819       25.9346715194       73.9348381667  TIP3      1108            0.0000000000
     20699      1245  TIP3      OH2            43.5748213926       24.8014190142       69.2698430084  TIP3      1109            0.0000000000
     20700      1245  TIP3      H1             42.5992075140       24.7571284337       69.1910757685  TIP3      1109            0.0000000000
     20701      1245  TIP3      H2             43.8441162962       24.3886489101       68.4227553815  TIP3      1109            0.0000000000
     20702      1246  TIP3      OH2            49.2106391931       25.8644595835       68.2689298746  TIP3      1110            0.0000000000
     20703      1246  TIP3      H1             48.9502977555       26.6911567864       67.8032693243  TIP3      1110            0.0000000000
     20704      1246  TIP3      H2             49.9295848602       25.5549015813       67.7124581910  TIP3      1110            0.0000000000
     20705      1247  TIP3      OH2            47.7053636006       26.0651803702       79.1941242832  TIP3      1111            0.0000000000
     20706      1247  TIP3      H1             47.2475486977       25.2795812696       79.5522508500  TIP3      1111            0.0000000000
     20707      1247  TIP3      H2             48.4864280378       26.0515899577       79.7656910092  TIP3      1111            0.0000000000
     20708      1248  TIP3      OH2            50.3822254209       25.3943099734       71.0317122470  TIP3      1112            0.0000000000
     20709      1248  TIP3      H1             50.0958283098       26.1960199866       70.5564223839  TIP3      1112            0.0000000000
     20710      1248  TIP3      H2             50.3102996978       24.7532261586       70.3089351491  TIP3      1112            0.0000000000
     20711      1249  TIP3      OH2            41.1650635782       24.9036417803       75.5460793355  TIP3      1113            0.0000000000
     20712      1249  TIP3      H1             41.4606142315       25.0539750125       76.4538738029  TIP3      1113            0.0000000000
     20713      1249  TIP3      H2             40.7156280700       24.0293726826       75.5973246087  TIP3      1113            0.0000000000
     20714      1250  TIP3      OH2            44.0962912828       22.9392665531       63.1213244163  TIP3      1114            0.0000000000
     20715      1250  TIP3      H1             44.0321996218       22.3592601881       63.9067682956  TIP3      1114            0.0000000000
     20716      1250  TIP3      H2             43.4774094244       22.4790998629       62.5275474630  TIP3      1114            0.0000000000
     20717      1251  TIP3      OH2            38.5150835320       22.0677041703       70.7065978520  TIP3      1115            0.0000000000
     20718      1251  TIP3      H1             38.9163281224       21.9722495759       71.6023140427  TIP3      1115            0.0000000000
     20719      1251  TIP3      H2             39.3044641719       22.0024148742       70.1552850715  TIP3      1115            0.0000000000
     20720      1252  TIP3      OH2            38.5279903778       23.1518665949       65.3431447487  TIP3      1116            0.0000000000
     20721      1252  TIP3      H1             39.0824300736       23.5542790656       64.6243603845  TIP3      1116            0.0000000000
     20722      1252  TIP3      H2             38.0300068597       23.9495885614       65.6058870248  TIP3      1116            0.0000000000
     20723      1253  TIP3      OH2            49.4211711032       26.8277998235       75.2756701946  TIP3      1117            0.0000000000
     20724      1253  TIP3      H1             49.9234181317       26.1245262221       74.7982521656  TIP3      1117            0.0000000000
     20725      1253  TIP3      H2             48.7656615044       26.2648362003       75.7618961290  TIP3      1117            0.0000000000
     20726      1254  TIP3      OH2            46.4410022198       22.4285099046       70.4326205130  TIP3      1118            0.0000000000
     20727      1254  TIP3      H1             45.4722459637       22.4298199251       70.5362360961  TIP3      1118            0.0000000000
     20728      1254  TIP3      H2             46.7030574000       21.9662809851       71.2566896711  TIP3      1118            0.0000000000
     20729      1255  TIP3      OH2            40.9875986172       23.9555361853       69.1205410458  TIP3      1119            0.0000000000
     20730      1255  TIP3      H1             40.3297451317       24.3133872598       68.4824496226  TIP3      1119            0.0000000000
     20731      1255  TIP3      H2             41.1571026877       23.0422641273       68.7821995217  TIP3      1119            0.0000000000
     20732      1256  TIP3      OH2            44.4513314666       24.1068069515       66.8445682841  TIP3      1120            0.0000000000
     20733      1256  TIP3      H1             45.3421631409       24.1561692667       67.2292548667  TIP3      1120            0.0000000000
     20734      1256  TIP3      H2             44.2724895132       25.0188516886       66.5799004401  TIP3      1120            0.0000000000
     20735      1257  TIP3      OH2            50.3615890292       21.9368254236       73.2705285820  TIP3      1121            0.0000000000
     20736      1257  TIP3      H1             49.6517537744       21.6512176585       73.8818434683  TIP3      1121            0.0000000000
     20737      1257  TIP3      H2             50.2392269102       21.3758959452       72.4884385194  TIP3      1121            0.0000000000
     20738      1258  TIP3      OH2            53.5501677333       37.1619628739       80.1172158562  TIP3      1122            0.0000000000
     20739      1258  TIP3      H1             53.9922757058       37.6724985594       79.4237018268  TIP3      1122            0.0000000000
     20740      1258  TIP3      H2             54.2490460088       37.0162169798       80.7772769612  TIP3      1122            0.0000000000
     20741      1259  TIP3      OH2            41.4079940754       29.5482854641       79.4873284244  TIP3      1123            0.0000000000
     20742      1259  TIP3      H1             41.8401473566       29.3695704576       80.3513267175  TIP3      1123            0.0000000000
     20743      1259  TIP3      H2             40.4718735846       29.5967887036       79.7949757172  TIP3      1123            0.0000000000
     20744      1260  TIP3      OH2            46.9814481724       25.2618303932       71.7892778836  TIP3      1124            0.0000000000
     20745      1260  TIP3      H1             47.8819442533       24.9389352059       71.6323600020  TIP3      1124            0.0000000000
     20746      1260  TIP3      H2             46.5928341735       24.5509230141       72.3268159602  TIP3      1124            0.0000000000
     20747      1261  TIP3      OH2            42.1039448551       21.4843323637       68.5906798279  TIP3      1125            0.0000000000
     20748      1261  TIP3      H1             41.5125707469       20.7902331879       68.9672162806  TIP3      1125            0.0000000000
     20749      1261  TIP3      H2             42.5893558688       20.9630350201       67.9351706957  TIP3      1125            0.0000000000
     20750      1262  TIP3      OH2            45.7998200741       23.6402753637       74.4861328963  TIP3      1126            0.0000000000
     20751      1262  TIP3      H1             45.0291519911       24.2572096628       74.4342055531  TIP3      1126            0.0000000000
     20752      1262  TIP3      H2             46.4719126323       24.1985656331       74.9085557220  TIP3      1126            0.0000000000
     20753      1263  TIP3      OH2            46.0315085707       29.8059436968       66.0776569732  TIP3      1127            0.0000000000
     20754      1263  TIP3      H1             45.4453367097       30.4712393532       65.6611949514  TIP3      1127            0.0000000000
     20755      1263  TIP3      H2             45.9939055911       30.1300045924       67.0103990477  TIP3      1127            0.0000000000
     20756      1264  TIP3      OH2            54.1419820531       29.4332432717       74.7189849431  TIP3      1128            0.0000000000
     20757      1264  TIP3      H1             54.6438234775       30.0685278303       74.1445504834  TIP3      1128            0.0000000000
     20758      1264  TIP3      H2             53.3310387704       29.2861601264       74.1905065808  TIP3      1128            0.0000000000
     20759      1265  TIP3      OH2            47.1932093294       30.4528365769       77.5735482147  TIP3      1129            0.0000000000
     20760      1265  TIP3      H1             47.8654149032       29.7987269987       77.7888714672  TIP3      1129            0.0000000000
     20761      1265  TIP3      H2             47.6757507949       31.2984928741       77.6309262597  TIP3      1129            0.0000000000
     20762      1266  TIP3      OH2            51.7258030768       24.5071656603       65.5890255205  TIP3      1130            0.0000000000
     20763      1266  TIP3      H1             52.2816962050       24.5494512792       66.3950278976  TIP3      1130            0.0000000000
     20764      1266  TIP3      H2             51.5238893151       25.4621204276       65.4369045406  TIP3      1130            0.0000000000
     20765      1267  TIP3      OH2            41.9390607951       29.4243832119       72.0344259223  TIP3      1131            0.0000000000
     20766      1267  TIP3      H1             41.8900259611       29.2290038311       71.0920952257  TIP3      1131            0.0000000000
     20767      1267  TIP3      H2             42.0989150221       28.5346832485       72.4079157470  TIP3      1131            0.0000000000
     20768      1268  TIP3      OH2            48.4105903515       31.3479876764       65.8533098649  TIP3      1132            0.0000000000
     20769      1268  TIP3      H1             48.0571843710       32.1315655614       65.4052475191  TIP3      1132            0.0000000000
     20770      1268  TIP3      H2             47.6684473722       30.7227676556       65.8058730904  TIP3      1132            0.0000000000
     20771      1269  TIP3      OH2            38.2231029297       27.7662258146       77.4022000159  TIP3      1133            0.0000000000
     20772      1269  TIP3      H1             38.4850975422       27.0091621752       77.9485364473  TIP3      1133            0.0000000000
     20773      1269  TIP3      H2             37.8592488192       27.3695310290       76.5822177352  TIP3      1133            0.0000000000
     20774      1270  TIP3      OH2            45.4815936002       27.6719413602       78.9298805904  TIP3      1134            0.0000000000
     20775      1270  TIP3      H1             45.1062813752       27.1287321930       78.2153153514  TIP3      1134            0.0000000000
     20776      1270  TIP3      H2             46.4287802978       27.4126312972       78.8778960197  TIP3      1134            0.0000000000
     20777      1271  TIP3      OH2            50.4642084569       32.5827915986       77.7626421150  TIP3      1135            0.0000000000
     20778      1271  TIP3      H1             49.6931872504       32.9214062407       77.2749058831  TIP3      1135            0.0000000000
     20779      1271  TIP3      H2             50.3209183964       33.0294880885       78.6174057408  TIP3      1135            0.0000000000
     20780      1272  TIP3      OH2            56.4806889777       24.2037778325       65.7568521135  TIP3      1136            0.0000000000
     20781      1272  TIP3      H1             56.0143163982       25.0215074487       65.9618714125  TIP3      1136            0.0000000000
     20782      1272  TIP3      H2             57.0413491122       24.1327020253       66.5563905751  TIP3      1136            0.0000000000
     20783      1273  TIP3      OH2            56.1316215435       30.7552110653       78.4287572397  TIP3      1137            0.0000000000
     20784      1273  TIP3      H1             55.2692360447       30.8881967279       77.9837833116  TIP3      1137            0.0000000000
     20785      1273  TIP3      H2             56.7533171048       30.7299820820       77.6582514433  TIP3      1137            0.0000000000
     20786      1274  TIP3      OH2            54.0738502310       33.6203303314       66.0391590180  TIP3      1138            0.0000000000
     20787      1274  TIP3      H1             53.9526860265       32.7311815801       66.4006526166  TIP3      1138            0.0000000000
     20788      1274  TIP3      H2             54.6209488246       33.4714316760       65.2467055532  TIP3      1138            0.0000000000
     20789      1275  TIP3      OH2            51.6233432831       28.5290496469       73.2240446470  TIP3      1139            0.0000000000
     20790      1275  TIP3      H1             50.7350049738       28.2285302800       72.9755545803  TIP3      1139            0.0000000000
     20791      1275  TIP3      H2             52.1772853956       27.9767384062       72.6280749520  TIP3      1139            0.0000000000
     20792      1276  TIP3      OH2            44.0291196255       32.4458613150       69.7942603506  TIP3      1140            0.0000000000
     20793      1276  TIP3      H1             44.4851448399       33.2428525893       69.4411872385  TIP3      1140            0.0000000000
     20794      1276  TIP3      H2             43.1552056970       32.5638527012       69.4059221991  TIP3      1140            0.0000000000
     20795      1277  TIP3      OH2            40.6845950065       27.8291487790       64.0215069524  TIP3      1141            0.0000000000
     20796      1277  TIP3      H1             40.5421052898       28.1650376846       63.1095411721  TIP3      1141            0.0000000000
     20797      1277  TIP3      H2             39.7665224031       27.9170180237       64.3275400353  TIP3      1141            0.0000000000
     20798      1278  TIP3      OH2            45.7080693070       30.6339717393       68.7257815005  TIP3      1142            0.0000000000
     20799      1278  TIP3      H1             45.0602720314       31.2355990354       69.1388360711  TIP3      1142            0.0000000000
     20800      1278  TIP3      H2             45.5596274345       29.8057542156       69.2080548513  TIP3      1142            0.0000000000
     20801      1279  TIP3      OH2            45.8577336579       34.6905745399       75.7355835465  TIP3      1143            0.0000000000
     20802      1279  TIP3      H1             46.3841370101       35.3799050222       75.2813602969  TIP3      1143            0.0000000000
     20803      1279  TIP3      H2             46.5777708321       34.2955970425       76.2616096744  TIP3      1143            0.0000000000
     20804      1280  TIP3      OH2            44.5379143896       34.9324440439       68.4549107113  TIP3      1144            0.0000000000
     20805      1280  TIP3      H1             43.8086177590       35.4595645472       68.8141248069  TIP3      1144            0.0000000000
     20806      1280  TIP3      H2             44.9193930609       35.5365337458       67.7943950983  TIP3      1144            0.0000000000
     20807      1281  TIP3      OH2            49.0979923217       30.7561988189       74.9674295392  TIP3      1145            0.0000000000
     20808      1281  TIP3      H1             48.7347463279       30.3746340320       75.7841097364  TIP3      1145            0.0000000000
     20809      1281  TIP3      H2             49.6279286485       30.0165592375       74.6110481616  TIP3      1145            0.0000000000
     20810      1282  TIP3      OH2            52.3031527752       35.2456866186       77.3315153975  TIP3      1146            0.0000000000
     20811      1282  TIP3      H1             51.4047450650       34.8958471066       77.1967655476  TIP3      1146            0.0000000000
     20812      1282  TIP3      H2             52.3392966615       35.9196392456       76.6111805242  TIP3      1146            0.0000000000
     20813      1283  TIP3      OH2            40.2314959675       22.3954958802       76.4465328502  TIP3      1147            0.0000000000
     20814      1283  TIP3      H1             39.7855906472       22.8551512917       77.1838681659  TIP3      1147            0.0000000000
     20815      1283  TIP3      H2             40.2546841410       21.4979159779       76.8057638805  TIP3      1147            0.0000000000
     20816      1284  TIP3      OH2            52.7586969817       30.3422547300       66.5425098228  TIP3      1148            0.0000000000
     20817      1284  TIP3      H1             52.6510789139       29.4298983546       66.8721676932  TIP3      1148            0.0000000000
     20818      1284  TIP3      H2             53.7229376611       30.3748248885       66.4059300794  TIP3      1148            0.0000000000
     20819      1285  TIP3      OH2            39.9258569598       33.8401179257       75.5631356678  TIP3      1149            0.0000000000
     20820      1285  TIP3      H1             40.8021202610       33.6750153172       75.2055091423  TIP3      1149            0.0000000000
     20821      1285  TIP3      H2             39.9908532988       34.7635375585       75.8360444558  TIP3      1149            0.0000000000
     20822      1286  TIP3      OH2            44.6331274971       32.4399641890       65.4550293339  TIP3      1150            0.0000000000
     20823      1286  TIP3      H1             44.9175521055       32.9377660152       66.2341516816  TIP3      1150            0.0000000000
     20824      1286  TIP3      H2             44.7841248988       33.1635657178       64.7987086215  TIP3      1150            0.0000000000
     20825      1287  TIP3      OH2            40.8725423936       30.9284731910       65.1847823746  TIP3      1151            0.0000000000
     20826      1287  TIP3      H1             40.6904053974       30.2350711761       65.8327739240  TIP3      1151            0.0000000000
     20827      1287  TIP3      H2             41.8133209343       31.0998605270       65.3246185976  TIP3      1151            0.0000000000
     20828      1288  TIP3      OH2            49.1199072107       22.0857593149       76.0907911789  TIP3      1152            0.0000000000
     20829      1288  TIP3      H1             49.7767424678       22.3680185455       76.7403191192  TIP3      1152            0.0000000000
     20830      1288  TIP3      H2             48.9852390948       21.1428544701       76.3208610179  TIP3      1152            0.0000000000
     20831      1289  TIP3      OH2            49.9748902652       21.7900822793       67.1770049199  TIP3      1153            0.0000000000
     20832      1289  TIP3      H1             49.9307343894       22.6597045910       66.7465304915  TIP3      1153            0.0000000000
     20833      1289  TIP3      H2             50.4165465708       22.0538968772       68.0150332318  TIP3      1153            0.0000000000
     20834      1290  TIP3      OH2            47.3196229078       23.8010640893       68.1047701871  TIP3      1154            0.0000000000
     20835      1290  TIP3      H1             47.6522621958       24.6972345117       68.3137257159  TIP3      1154            0.0000000000
     20836      1290  TIP3      H2             47.0928219356       23.4499411504       68.9917571001  TIP3      1154            0.0000000000
     20837      1291  TIP3      OH2            48.0620020871       24.8929458991       76.5386431355  TIP3      1155            0.0000000000
     20838      1291  TIP3      H1             47.9924114550       25.0066030246       77.5032646078  TIP3      1155            0.0000000000
     20839      1291  TIP3      H2             48.3361738372       23.9591494355       76.4153306796  TIP3      1155            0.0000000000
     20840      1292  TIP3      OH2            47.9841646427       20.4611679379       68.5083632242  TIP3      1156            0.0000000000
     20841      1292  TIP3      H1             47.4601098814       21.0008349671       69.1282842630  TIP3      1156            0.0000000000
     20842      1292  TIP3      H2             48.6237584486       21.1177660846       68.1606044788  TIP3      1156            0.0000000000
     20843      1293  TIP3      OH2            43.8447260085       21.7106140467       65.5332396052  TIP3      1157            0.0000000000
     20844      1293  TIP3      H1             43.7453549805       22.5592457608       66.0058697472  TIP3      1157            0.0000000000
     20845      1293  TIP3      H2             44.7081777300       21.3844432045       65.8782537688  TIP3      1157            0.0000000000
     20846      1294  TIP3      OH2            53.4026626246       22.7154268620       77.8468301420  TIP3      1158            0.0000000000
     20847      1294  TIP3      H1             52.4825198640       22.8853592981       77.5455949353  TIP3      1158            0.0000000000
     20848      1294  TIP3      H2             53.9074291864       22.7236333800       77.0060007452  TIP3      1158            0.0000000000
     20849      1295  TIP3      OH2            52.8326448076       26.5864744191       71.7185649544  TIP3      1159            0.0000000000
     20850      1295  TIP3      H1             52.0037810887       26.0845050100       71.7747099307  TIP3      1159            0.0000000000
     20851      1295  TIP3      H2             53.4877488932       25.9561504955       72.0994372539  TIP3      1159            0.0000000000
     20852      1296  TIP3      OH2            39.5523540972       24.8251781686       63.5868814381  TIP3      1160            0.0000000000
     20853      1296  TIP3      H1             40.1148191220       25.6063541125       63.5502834369  TIP3      1160            0.0000000000
     20854      1296  TIP3      H2             39.2482948226       24.8174057472       62.6408290506  TIP3      1160            0.0000000000
     20855      1297  TIP3      OH2            53.1762943242       35.6195989764       73.3546224921  TIP3      1161            0.0000000000
     20856      1297  TIP3      H1             53.2786912353       36.1708213975       72.5486418721  TIP3      1161            0.0000000000
     20857      1297  TIP3      H2             54.1138561757       35.4683259857       73.5633231738  TIP3      1161            0.0000000000
     20858      1298  TIP3      OH2            41.0798515388       19.6540709046       72.5004757624  TIP3      1162            0.0000000000
     20859      1298  TIP3      H1             40.8617241283       19.6514961956       71.5452705540  TIP3      1162            0.0000000000
     20860      1298  TIP3      H2             40.7789404256       18.7479058220       72.7447487235  TIP3      1162            0.0000000000
     20861      1299  TIP3      OH2            39.0854293632       33.4248794686       67.9755449238  TIP3      1163            0.0000000000
     20862      1299  TIP3      H1             38.6086730312       34.1341434520       68.4236167043  TIP3      1163            0.0000000000
     20863      1299  TIP3      H2             39.9419163359       33.8377416122       67.8327369907  TIP3      1163            0.0000000000
     20864      1300  TIP3      OH2            38.7735039813       36.7141020221       79.6467546583  TIP3      1164            0.0000000000
     20865      1300  TIP3      H1             39.3315742035       36.4691276245       80.4215932495  TIP3      1164            0.0000000000
     20866      1300  TIP3      H2             38.3664249459       35.8463639241       79.4913005913  TIP3      1164            0.0000000000
     20867      1301  TIP3      OH2            43.5550974865       35.0309425028       81.2432136525  TIP3      1165            0.0000000000
     20868      1301  TIP3      H1             44.4934246902       34.7913698798       81.1088677883  TIP3      1165            0.0000000000
     20869      1301  TIP3      H2             43.2211334819       35.0193215003       80.3182869779  TIP3      1165            0.0000000000
     20870      1302  TIP3      OH2            49.9437755764       33.9314415265       80.0668914585  TIP3      1166            0.0000000000
     20871      1302  TIP3      H1             49.7147768488       33.0979832644       80.5426553351  TIP3      1166            0.0000000000
     20872      1302  TIP3      H2             50.8608314200       34.0257482050       80.3957280407  TIP3      1166            0.0000000000
     20873      1303  TIP3      OH2            52.4538123839       33.8260698612       62.8979374508  TIP3      1167            0.0000000000
     20874      1303  TIP3      H1             52.4640639589       33.1366683506       63.5714801681  TIP3      1167            0.0000000000
     20875      1303  TIP3      H2             52.8510518277       33.3547336426       62.1507796354  TIP3      1167            0.0000000000
     20876      1304  TIP3      OH2            38.8799339966       29.9983160233       80.3372032075  TIP3      1168            0.0000000000
     20877      1304  TIP3      H1             38.4010105432       29.1695998525       80.4901683071  TIP3      1168            0.0000000000
     20878      1304  TIP3      H2             38.4135512913       30.3612791836       79.5391347710  TIP3      1168            0.0000000000
     20879      1305  TIP3      OH2            43.1484615617       31.4377994801       62.6880209201  TIP3      1169            0.0000000000
     20880      1305  TIP3      H1             42.5786886866       30.9171477182       63.2619592420  TIP3      1169            0.0000000000
     20881      1305  TIP3      H2             42.9281081460       31.0823024827       61.8139048803  TIP3      1169            0.0000000000
     20882      1306  TIP3      OH2            45.4218610363       30.1920385370       79.6438909895  TIP3      1170            0.0000000000
     20883      1306  TIP3      H1             45.8881631423       30.5314961230       78.8495464723  TIP3      1170            0.0000000000
     20884      1306  TIP3      H2             45.3109980044       29.2518921431       79.3559346090  TIP3      1170            0.0000000000
     20885      1307  TIP3      OH2            51.2217892440       29.8746214520       77.6331836432  TIP3      1171            0.0000000000
     20886      1307  TIP3      H1             52.1586795750       30.1784393454       77.5351051263  TIP3      1171            0.0000000000
     20887      1307  TIP3      H2             50.8082883859       30.7591628508       77.7428745074  TIP3      1171            0.0000000000
     20888      1308  TIP3      OH2            40.4750125113       26.8245499295       79.9954071473  TIP3      1172            0.0000000000
     20889      1308  TIP3      H1             40.8189071341       26.1331057163       80.5727606174  TIP3      1172            0.0000000000
     20890      1308  TIP3      H2             40.5322825962       27.5889660255       80.5955165391  TIP3      1172            0.0000000000
     20891      1309  TIP3      OH2            43.6830993075       26.2282364962       76.9442056662  TIP3      1173            0.0000000000
     20892      1309  TIP3      H1             42.9873498564       26.8615795881       76.6939174858  TIP3      1173            0.0000000000
     20893      1309  TIP3      H2             44.4097878875       26.5913474971       76.3958896295  TIP3      1173            0.0000000000
     20894      1310  TIP3      OH2            49.3259113704       29.0466770479       80.7119365181  TIP3      1174            0.0000000000
     20895      1310  TIP3      H1             50.0677543787       28.5093494739       80.3630371508  TIP3      1174            0.0000000000
     20896      1310  TIP3      H2             48.8711471518       28.4158590583       81.2966770155  TIP3      1174            0.0000000000
     20897      1311  TIP3      OH2            44.9061118011       24.0221913165       78.0607305313  TIP3      1175            0.0000000000
     20898      1311  TIP3      H1             44.8175320564       23.2709029693       77.4399080895  TIP3      1175            0.0000000000
     20899      1311  TIP3      H2             44.5513637300       24.7666987892       77.5282979395  TIP3      1175            0.0000000000
     20900      1312  TIP3      OH2            44.8885727696       21.7543232442       76.1223745522  TIP3      1176            0.0000000000
     20901      1312  TIP3      H1             45.3488727336       22.3253809923       75.4636667686  TIP3      1176            0.0000000000
     20902      1312  TIP3      H2             43.9740146077       21.8200676917       75.7711487718  TIP3      1176            0.0000000000
     20903      1313  TIP3      OH2            45.9983759193       27.5463807436       75.9483349632  TIP3      1177            0.0000000000
     20904      1313  TIP3      H1             46.8400358487       27.9289949575       75.6723828318  TIP3      1177            0.0000000000
     20905      1313  TIP3      H2             45.3758280644       28.2468177236       75.6351226812  TIP3      1177            0.0000000000
     20906      1314  TIP3      OH2            50.3821423484       25.1021417061       81.2527741395  TIP3      1178            0.0000000000
     20907      1314  TIP3      H1             50.6455047230       24.3100999250       80.7654412231  TIP3      1178            0.0000000000
     20908      1314  TIP3      H2             51.1914405602       25.6333127770       81.2200142774  TIP3      1178            0.0000000000
     20909      1315  TIP3      OH2            51.9084662430       28.4368379071       79.8277302277  TIP3      1179            0.0000000000
     20910      1315  TIP3      H1             51.5559175841       28.8802199857       79.0249304745  TIP3      1179            0.0000000000
     20911      1315  TIP3      H2             52.7134089505       28.0166309744       79.4677656219  TIP3      1179            0.0000000000
     20912      1316  TIP3      OH2            43.2304941622       24.6603401558       80.4267662927  TIP3      1180            0.0000000000
     20913      1316  TIP3      H1             42.4734831723       24.1710185799       80.0377446205  TIP3      1180            0.0000000000
     20914      1316  TIP3      H2             43.7954782392       24.7744962716       79.6396755005  TIP3      1180            0.0000000000
     20915      1317  TIP3      OH2            45.6567346292       19.2583457001       76.3809454189  TIP3      1181            0.0000000000
     20916      1317  TIP3      H1             45.3940778784       20.2070264681       76.2888153338  TIP3      1181            0.0000000000
     20917      1317  TIP3      H2             44.8539449440       18.8151765301       76.0682453226  TIP3      1181            0.0000000000
     20918      1318  TIP3      OH2            46.8396267945       23.5996813406       80.3457828776  TIP3      1182            0.0000000000
     20919      1318  TIP3      H1             46.1321510227       23.5473420217       81.0214346756  TIP3      1182            0.0000000000
     20920      1318  TIP3      H2             46.2686430644       23.4701953000       79.5622146256  TIP3      1182            0.0000000000
     20921      1319  TIP3      OH2            49.2370434265       23.1160928108       79.2633851291  TIP3      1183            0.0000000000
     20922      1319  TIP3      H1             48.2991213528       23.1376893730       79.5357468249  TIP3      1183            0.0000000000
     20923      1319  TIP3      H2             49.5985476024       22.4755377876       79.9118838423  TIP3      1183            0.0000000000
     20924      1320  TIP3      OH2            50.5942078425       21.4863817444       80.8473860779  TIP3      1184            0.0000000000
     20925      1320  TIP3      H1             51.4899650976       21.1230874338       80.7252656525  TIP3      1184            0.0000000000
     20926      1320  TIP3      H2             50.7437850049       22.0826287486       81.6227083463  TIP3      1184            0.0000000000
     20927      1321  TIP3      OH2            40.8779674630       22.9714675178       80.1383601967  TIP3      1185            0.0000000000
     20928      1321  TIP3      H1             40.7776580694       22.1326179715       79.6637003571  TIP3      1185            0.0000000000
     20929      1321  TIP3      H2             40.7545085136       22.6852506280       81.0780229778  TIP3      1185            0.0000000000
     20930      1322  TIP3      OH2            45.3674337658       18.5317652666       79.2085654728  TIP3      1186            0.0000000000
     20931      1322  TIP3      H1             45.8757606653       17.6931594587       79.2270532476  TIP3      1186            0.0000000000
     20932      1322  TIP3      H2             45.4422164679       18.7485777058       78.2594864919  TIP3      1186            0.0000000000
     20933      1323  TIP3      OH2            45.3123438409       19.9521108420       81.6086042380  TIP3      1187            0.0000000000
     20934      1323  TIP3      H1             45.4344628564       19.4538431534       80.7651639850  TIP3      1187            0.0000000000
     20935      1323  TIP3      H2             45.7805890116       20.7802178354       81.3972771915  TIP3      1187            0.0000000000
     20936      1324  TIP3      OH2            37.4519009446       37.0949336702       69.0464801405  TIP3      1188            0.0000000000
     20937      1324  TIP3      H1             36.8712042238       36.5103245396       68.5126299141  TIP3      1188            0.0000000000
     20938      1324  TIP3      H2             38.0016664986       36.4562740387       69.5472836643  TIP3      1188            0.0000000000
     20939      1325  TIP3      OH2            39.0359431117       35.6588433235       70.6835542144  TIP3      1189            0.0000000000
     20940      1325  TIP3      H1             38.6337202749       34.8928998991       71.1686178356  TIP3      1189            0.0000000000
     20941      1325  TIP3      H2             39.3115472556       36.1540302824       71.4848752832  TIP3      1189            0.0000000000
     20942      1326  TIP3      OH2            56.2077448790       36.0195945796       73.2448452952  TIP3      1190            0.0000000000
     20943      1326  TIP3      H1             56.2680279773       35.8719168271       74.2029659747  TIP3      1190            0.0000000000
     20944      1326  TIP3      H2             56.8255084498       36.7573536706       73.1419516347  TIP3      1190            0.0000000000
     20945      1327  TIP3      OH2            55.7637534395       35.4008143109       76.3569716081  TIP3      1191            0.0000000000
     20946      1327  TIP3      H1             55.3191421384       34.6292297970       75.9323589737  TIP3      1191            0.0000000000
     20947      1327  TIP3      H2             56.0328172944       35.0124124784       77.2193459350  TIP3      1191            0.0000000000
     20948      1328  TIP3      OH2            54.4447389111       31.3427567904       81.2867787124  TIP3      1192            0.0000000000
     20949      1328  TIP3      H1             53.5870841476       31.5329216234       81.7228756052  TIP3      1192            0.0000000000
     20950      1328  TIP3      H2             54.8843407387       32.2071756144       81.4386765299  TIP3      1192            0.0000000000
     20951      1329  TIP3      OH2            55.5467786121       29.9968078967       66.5612185979  TIP3      1193            0.0000000000
     20952      1329  TIP3      H1             56.4525604601       30.3779854754       66.4896042465  TIP3      1193            0.0000000000
     20953      1329  TIP3      H2             55.7091438329       29.2351972619       67.1436303528  TIP3      1193            0.0000000000
     20954      1330  TIP3      OH2            56.2507910154       27.7570109812       68.3904865057  TIP3      1194            0.0000000000
     20955      1330  TIP3      H1             55.4331377154       27.3703596736       68.7864590478  TIP3      1194            0.0000000000
     20956      1330  TIP3      H2             56.8293880301       27.8104081687       69.1775722337  TIP3      1194            0.0000000000
     20957      1331  TIP3      OH2            55.8391370581       30.7421279549       73.2423549092  TIP3      1195            0.0000000000
     20958      1331  TIP3      H1             56.4553301026       30.0198925472       72.9826392318  TIP3      1195            0.0000000000
     20959      1331  TIP3      H2             56.1265420783       31.5294804709       72.7466881569  TIP3      1195            0.0000000000
     20960      1332  TIP3      OH2            54.1537997235       33.3916821181       75.6524661501  TIP3      1196            0.0000000000
     20961      1332  TIP3      H1             53.4818871819       33.8177104984       76.2129606666  TIP3      1196            0.0000000000
     20962      1332  TIP3      H2             53.6391288544       33.1255712128       74.8622134307  TIP3      1196            0.0000000000
     20963      1333  TIP3      OH2            53.9740971467       26.5847707382       69.3553907876  TIP3      1197            0.0000000000
     20964      1333  TIP3      H1             53.4780350141       25.8038623445       69.0630075007  TIP3      1197            0.0000000000
     20965      1333  TIP3      H2             53.7176724219       26.6324161341       70.3015830459  TIP3      1197            0.0000000000
     20966      1334  TIP3      OH2            38.7160335612       28.1075420166       73.1655138728  TIP3      1198            0.0000000000
     20967      1334  TIP3      H1             38.8373379570       28.2137984535       72.1889704643  TIP3      1198            0.0000000000
     20968      1334  TIP3      H2             39.5925413609       27.6996004122       73.3798443254  TIP3      1198            0.0000000000
     20969      1335  TIP3      OH2            54.9339282175       28.3938315077       79.0059550391  TIP3      1199            0.0000000000
     20970      1335  TIP3      H1             55.5935197877       27.7090882420       78.7855909124  TIP3      1199            0.0000000000
     20971      1335  TIP3      H2             55.4248208915       29.2105774180       78.7816995875  TIP3      1199            0.0000000000
     20972      1336  TIP3      OH2            55.9657866602       25.9231222313       79.2324776543  TIP3      1200            0.0000000000
     20973      1336  TIP3      H1             55.0145282785       25.7032130460       79.1082606028  TIP3      1200            0.0000000000
     20974      1336  TIP3      H2             56.3940111075       25.0418480376       79.2931684064  TIP3      1200            0.0000000000
     20975      1337  TIP3      OH2            53.4636205737       24.1324599421       67.7351579164  TIP3      1201            0.0000000000
     20976      1337  TIP3      H1             53.4181116039       23.1474405062       67.7680886189  TIP3      1201            0.0000000000
     20977      1337  TIP3      H2             54.4234994307       24.2257913513       67.7501627740  TIP3      1201            0.0000000000
     20978      1338  TIP3      OH2            54.6020927188       24.8885480058       72.8205101097  TIP3      1202            0.0000000000
     20979      1338  TIP3      H1             55.5555886392       24.9322790511       73.0657401259  TIP3      1202            0.0000000000
     20980      1338  TIP3      H2             54.2173213486       24.7992568014       73.7172034655  TIP3      1202            0.0000000000
     20981      1339  TIP3      OH2            54.1771045917       25.4174154649       75.4019891787  TIP3      1203            0.0000000000
     20982      1339  TIP3      H1             53.2791332045       25.7437998534       75.5850871113  TIP3      1203            0.0000000000
     20983      1339  TIP3      H2             54.6627907819       26.2518432841       75.2187176282  TIP3      1203            0.0000000000
     20984      1340  TIP3      OH2            38.6192977219       23.7173449905       78.9609421825  TIP3      1204            0.0000000000
     20985      1340  TIP3      H1             39.4149055121       23.6592283948       79.5324415570  TIP3      1204            0.0000000000
     20986      1340  TIP3      H2             38.1842230316       22.8484470686       79.1421631591  TIP3      1204            0.0000000000
     20987      1341  TIP3      OH2            56.5889402852       19.7477515486       80.9558298023  TIP3      1205            0.0000000000
     20988      1341  TIP3      H1             56.9774313135       18.9664280471       80.5044946081  TIP3      1205            0.0000000000
     20989      1341  TIP3      H2             56.3207014049       20.3034258467       80.1937823925  TIP3      1205            0.0000000000
     20990      1342  TIP3      OH2            53.8789380424       21.5076945754       67.9259667420  TIP3      1206            0.0000000000
     20991      1342  TIP3      H1             54.2585436661       21.0930800958       68.7352290632  TIP3      1206            0.0000000000
     20992      1342  TIP3      H2             53.5192816351       20.7217432624       67.4841140910  TIP3      1206            0.0000000000
     20993      1343  TIP3      OH2            39.7657166489       22.0695157048       73.0210584005  TIP3      1207            0.0000000000
     20994      1343  TIP3      H1             40.1411137357       21.1801461683       73.2031437739  TIP3      1207            0.0000000000
     20995      1343  TIP3      H2             40.5713015962       22.6288879452       73.0180686069  TIP3      1207            0.0000000000
     20996      1344  TIP3      OH2            38.0346820253       25.2152872199       73.1770376798  TIP3      1208            0.0000000000
     20997      1344  TIP3      H1             38.5931409560       25.0598043402       72.3872697710  TIP3      1208            0.0000000000
     20998      1344  TIP3      H2             38.0604698015       26.1864168396       73.1968389034  TIP3      1208            0.0000000000
     20999      1345  TIP3      OH2            55.6933232233       21.5483460077       79.2104601303  TIP3      1209            0.0000000000
     21000      1345  TIP3      H1             54.9278179122       21.8887072593       79.7041205399  TIP3      1209            0.0000000000
     21001      1345  TIP3      H2             55.2614509791       21.1576056567       78.4289370943  TIP3      1209            0.0000000000
     21002      1346  TIP3      OH2            38.1843692635       21.2371697298       67.1100853273  TIP3      1210            0.0000000000
     21003      1346  TIP3      H1             37.2223468310       21.3920020440       67.1246295743  TIP3      1210            0.0000000000
     21004      1346  TIP3      H2             38.4305755110       21.8661843024       66.3975729614  TIP3      1210            0.0000000000
     21005      1347  TIP3      OH2            52.9755019479       36.4337893233       69.1571285253  TIP3      1211            0.0000000000
     21006      1347  TIP3      H1             53.7517741599       36.1976423423       68.6187817043  TIP3      1211            0.0000000000
     21007      1347  TIP3      H2             53.3597308483       36.9486185069       69.8983066542  TIP3      1211            0.0000000000
     21008      1348  TIP3      OH2            38.2485229479       19.7906689457       75.7853586985  TIP3      1212            0.0000000000
     21009      1348  TIP3      H1             37.5396909265       19.4392646855       76.3597194574  TIP3      1212            0.0000000000
     21010      1348  TIP3      H2             37.9788082571       20.7129409499       75.6729110386  TIP3      1212            0.0000000000
     21011      1349  TIP3      OH2            40.2251318304       33.1818537959       79.5085643631  TIP3      1213            0.0000000000
     21012      1349  TIP3      H1             39.3820481675       33.5374361091       79.1531581477  TIP3      1213            0.0000000000
     21013      1349  TIP3      H2             39.9976996581       33.1031689130       80.4431138729  TIP3      1213            0.0000000000
     21014      1350  TIP3      OH2            43.1382996931       34.6371771637       76.1365791652  TIP3      1214            0.0000000000
     21015      1350  TIP3      H1             43.0699458956       35.5736087820       75.8379684115  TIP3      1214            0.0000000000
     21016      1350  TIP3      H2             44.0861571154       34.4911360976       75.9205026995  TIP3      1214            0.0000000000
     21017      1351  TIP3      OH2            47.4393969683       35.8166545466       78.7392622196  TIP3      1215            0.0000000000
     21018      1351  TIP3      H1             47.4022451251       35.5024371460       79.6607351762  TIP3      1215            0.0000000000
     21019      1351  TIP3      H2             48.3279970725       36.2303083143       78.6974166605  TIP3      1215            0.0000000000
     21020      1352  TIP3      OH2            49.6277277847       37.4696956393       78.3309741948  TIP3      1216            0.0000000000
     21021      1352  TIP3      H1             50.4264159686       37.0039389610       78.0385709238  TIP3      1216            0.0000000000
     21022      1352  TIP3      H2             49.9113915107       37.8958107797       79.1621578861  TIP3      1216            0.0000000000
     21023      1353  TIP3      OH2            54.9561465461       19.3763255476       77.3452923320  TIP3      1217            0.0000000000
     21024      1353  TIP3      H1             54.1457041552       19.7969489519       77.0149580207  TIP3      1217            0.0000000000
     21025      1353  TIP3      H2             54.9694641194       18.5169117315       76.8850855393  TIP3      1217            0.0000000000
     21026      1354  TIP3      OH2            40.8482957034       37.9880656697       76.0775867302  TIP3      1218            0.0000000000
     21027      1354  TIP3      H1             40.0218688286       38.2564286132       75.6333868294  TIP3      1218            0.0000000000
     21028      1354  TIP3      H2             40.5905560802       38.1292970475       77.0027916611  TIP3      1218            0.0000000000
     21029      1355  TIP3      OH2            43.0439427232       37.2188525810       74.8725696069  TIP3      1219            0.0000000000
     21030      1355  TIP3      H1             42.1400826745       37.4569548955       75.2040145816  TIP3      1219            0.0000000000
     21031      1355  TIP3      H2             43.2261545063       37.9995856817       74.3224308152  TIP3      1219            0.0000000000
     21032      1356  TIP3      OH2            47.5185531094       36.5650631015       74.3684728892  TIP3      1220            0.0000000000
     21033      1356  TIP3      H1             47.3243430844       36.9362289857       73.4947399963  TIP3      1220            0.0000000000
     21034      1356  TIP3      H2             47.8163170100       37.3624846112       74.8673238691  TIP3      1220            0.0000000000
     21035      1357  TIP3      OH2            49.8238064394       35.4610425232       75.7248302897  TIP3      1221            0.0000000000
     21036      1357  TIP3      H1             49.0783123622       35.9160957039       75.2916608850  TIP3      1221            0.0000000000
     21037      1357  TIP3      H2             50.5475259759       36.0667107760       75.4717037813  TIP3      1221            0.0000000000
     21038      1358  TIP3      OH2            52.2534279286       37.2044126256       75.4432941565  TIP3      1222            0.0000000000
     21039      1358  TIP3      H1             52.2231953792       38.1594497491       75.2625610809  TIP3      1222            0.0000000000
     21040      1358  TIP3      H2             52.5549059971       36.8509262659       74.5744842365  TIP3      1222            0.0000000000
     21041      1359  TIP3      OH2            40.4599874613       36.2693418503       73.0764410887  TIP3      1223            0.0000000000
     21042      1359  TIP3      H1             40.0397750561       35.5443687541       73.5649654911  TIP3      1223            0.0000000000
     21043      1359  TIP3      H2             41.2088321804       35.8227991426       72.6168599105  TIP3      1223            0.0000000000
     21044      1360  TIP3      OH2            42.4009399086       35.0925170379       71.6040196563  TIP3      1224            0.0000000000
     21045      1360  TIP3      H1             42.1016650008       34.1751233276       71.7636307412  TIP3      1224            0.0000000000
     21046      1360  TIP3      H2             43.3019796883       35.0473349433       71.9973202556  TIP3      1224            0.0000000000
     21047      1361  TIP3      OH2            44.7355210072       34.9427576549       72.7852559709  TIP3      1225            0.0000000000
     21048      1361  TIP3      H1             45.0652777258       34.0248376591       72.7957033902  TIP3      1225            0.0000000000
     21049      1361  TIP3      H2             44.8762099795       35.2079918566       73.7083022865  TIP3      1225            0.0000000000
     21050      1362  TIP3      OH2            47.3544454552       20.6168557707       72.3564808460  TIP3      1226            0.0000000000
     21051      1362  TIP3      H1             46.6714055590       19.9198249925       72.2194601974  TIP3      1226            0.0000000000
     21052      1362  TIP3      H2             48.1084345768       20.2335243209       71.8889206610  TIP3      1226            0.0000000000
     21053      1363  TIP3      OH2            53.1223551341       19.5686119320       71.8254371700  TIP3      1227            0.0000000000
     21054      1363  TIP3      H1             53.7250540690       19.8608702078       71.0999374446  TIP3      1227            0.0000000000
     21055      1363  TIP3      H2             52.3194319942       19.3580710388       71.3202402937  TIP3      1227            0.0000000000
     21056      1364  TIP3      OH2            55.0410985240       20.1514338547       69.9338951838  TIP3      1228            0.0000000000
     21057      1364  TIP3      H1             55.6217364842       19.4947984311       69.4794967623  TIP3      1228            0.0000000000
     21058      1364  TIP3      H2             55.7000230365       20.8120479556       70.2564199665  TIP3      1228            0.0000000000
     21059      1365  TIP3      OH2            40.7061463373       19.5283533832       69.6680014334  TIP3      1229            0.0000000000
     21060      1365  TIP3      H1             39.9143364616       19.4878796603       69.1024111229  TIP3      1229            0.0000000000
     21061      1365  TIP3      H2             41.1000207350       18.6396730084       69.5028889045  TIP3      1229            0.0000000000
     21062      1366  TIP3      OH2            39.5294657486       19.6083600948       65.3244725928  TIP3      1230            0.0000000000
     21063      1366  TIP3      H1             39.9509432195       20.0239747490       64.5388027219  TIP3      1230            0.0000000000
     21064      1366  TIP3      H2             39.1294590068       20.3493724520       65.8227256472  TIP3      1230            0.0000000000
     21065      1367  TIP3      OH2            44.7306059385       18.9148565321       69.2896804138  TIP3      1231            0.0000000000
     21066      1367  TIP3      H1             45.3434001174       19.2806583963       68.6407283240  TIP3      1231            0.0000000000
     21067      1367  TIP3      H2             45.2799060331       18.8336635795       70.0985386208  TIP3      1231            0.0000000000
     21068      1368  TIP3      OH2            50.4389074353       19.7262731022       70.7022046607  TIP3      1232            0.0000000000
     21069      1368  TIP3      H1             50.2796156571       19.6501843339       69.7518871968  TIP3      1232            0.0000000000
     21070      1368  TIP3      H2             50.0713295764       18.8512422351       70.9973953628  TIP3      1232            0.0000000000
     21071      1369  TIP3      OH2            51.4174820957       19.2592917234       66.3833094107  TIP3      1233            0.0000000000
     21072      1369  TIP3      H1             50.8623618150       19.9893097422       66.7071808749  TIP3      1233            0.0000000000
     21073      1369  TIP3      H2             50.9906325428       18.4858074167       66.8339354975  TIP3      1233            0.0000000000
     21074      1370  TIP3      OH2            41.1325728600       20.5397301094       63.3990258233  TIP3      1234            0.0000000000
     21075      1370  TIP3      H1             40.8528222659       19.8687334196       62.7196678072  TIP3      1234            0.0000000000
     21076      1370  TIP3      H2             41.9786166053       20.1543606747       63.6619933185  TIP3      1234            0.0000000000
     21077      1371  TIP3      OH2            46.2902911928       21.5281261397       66.5222167265  TIP3      1235            0.0000000000
     21078      1371  TIP3      H1             46.7741910545       21.1207549072       67.2606578697  TIP3      1235            0.0000000000
     21079      1371  TIP3      H2             46.6869874634       22.4112055200       66.4784887570  TIP3      1235            0.0000000000
     21080      1372  TIP3      OH2            54.7962001217       35.9298288794       67.0911897103  TIP3      1236            0.0000000000
     21081      1372  TIP3      H1             54.5300895579       35.0771012920       66.6690230339  TIP3      1236            0.0000000000
     21082      1372  TIP3      H2             54.1915484400       36.5470304155       66.6441813078  TIP3      1236            0.0000000000
     21083      1373  TIP3      OH2            40.2685665040       20.2727262322       78.7254363781  TIP3      1237            0.0000000000
     21084      1373  TIP3      H1             39.4854183289       19.7338547219       78.9605857830  TIP3      1237            0.0000000000
     21085      1373  TIP3      H2             40.8307607603       20.1570588400       79.5134304424  TIP3      1237            0.0000000000
     21086      1374  TIP3      OH2            42.5277360816       19.7520180852       80.7184917027  TIP3      1238            0.0000000000
     21087      1374  TIP3      H1             43.4496781116       19.9019646257       81.0345219407  TIP3      1238            0.0000000000
     21088      1374  TIP3      H2             42.2333385051       19.0678368794       81.3742567219  TIP3      1238            0.0000000000
     21089      1375  TIP3      OH2            51.0378662437       18.7422377969       81.1788665756  TIP3      1239            0.0000000000
     21090      1375  TIP3      H1             51.1745927865       18.1978367742       81.9795747026  TIP3      1239            0.0000000000
     21091      1375  TIP3      H2             51.8790847084       18.5191909903       80.7118062822  TIP3      1239            0.0000000000
     21092      1376  TIP3      OH2            54.0808441981       34.6076775017       79.2253634280  TIP3      1240            0.0000000000
     21093      1376  TIP3      H1             53.4132461358       34.6078610637       78.5022323064  TIP3      1240            0.0000000000
     21094      1376  TIP3      H2             53.8128394629       35.4337235590       79.6696520255  TIP3      1240            0.0000000000
     21095      1377  TIP3      OH2            59.8623383134       27.7163794282       74.0793229411  TIP3      1241            0.0000000000
     21096      1377  TIP3      H1             59.7030937412       26.8200609628       74.4199416092  TIP3      1241            0.0000000000
     21097      1377  TIP3      H2             60.3618560726       28.0897539723       74.8359698777  TIP3      1241            0.0000000000
     21098      1378  TIP3      OH2            60.7706939717       33.0051394119       72.4806142903  TIP3      1242            0.0000000000
     21099      1378  TIP3      H1             60.2209233784       32.2197223093       72.4212385196  TIP3      1242            0.0000000000
     21100      1378  TIP3      H2             61.6313479990       32.6228108195       72.7418087389  TIP3      1242            0.0000000000
     21101      1379  TIP3      OH2            57.4379642528       25.3187201076       68.0452487394  TIP3      1243            0.0000000000
     21102      1379  TIP3      H1             57.2069806366       26.2636039958       67.9576480412  TIP3      1243            0.0000000000
     21103      1379  TIP3      H2             57.2308348529       25.1808289755       68.9795756466  TIP3      1243            0.0000000000
     21104      1380  TIP3      OH2            57.9838669640       27.5082592086       70.5338003874  TIP3      1244            0.0000000000
     21105      1380  TIP3      H1             58.4847316891       26.7756679865       70.9704559981  TIP3      1244            0.0000000000
     21106      1380  TIP3      H2             58.6846145221       28.0894874014       70.2197341722  TIP3      1244            0.0000000000
     21107      1381  TIP3      OH2            -0.0044623834       30.5385910907       73.8596125278  TIP3      1245            0.0000000000
     21108      1381  TIP3      H1              0.4061523438       29.6464675650       73.7618540920  TIP3      1245            0.0000000000
     21109      1381  TIP3      H2              0.7416966950       31.1502551767       73.8694160059  TIP3      1245            0.0000000000
     21110      1382  TIP3      OH2            61.8616125332       22.3742394373       70.7866776663  TIP3      1246            0.0000000000
     21111      1382  TIP3      H1             61.9580792075       23.2312362047       70.3108164253  TIP3      1246            0.0000000000
     21112      1382  TIP3      H2             61.4177254429       21.8335272490       70.0960377890  TIP3      1246            0.0000000000
     21113      1383  TIP3      OH2            59.0719711633       25.4414539114       71.6781068775  TIP3      1247            0.0000000000
     21114      1383  TIP3      H1             59.7093037063       25.0038326482       72.2735900088  TIP3      1247            0.0000000000
     21115      1383  TIP3      H2             59.2638464960       24.9167436197       70.8633489548  TIP3      1247            0.0000000000
     21116      1384  TIP3      OH2            63.8921449648       26.4656322722       70.5640806408  TIP3      1248            0.0000000000
     21117      1384  TIP3      H1             64.5434115001       25.9529714936       71.0586261237  TIP3      1248            0.0000000000
     21118      1384  TIP3      H2             63.3375170771       25.7558454105       70.1773913978  TIP3      1248            0.0000000000
     21119      1385  TIP3      OH2            60.7583097669       21.8069640414       74.9135663668  TIP3      1249            0.0000000000
     21120      1385  TIP3      H1             60.3882493643       22.2440664486       74.1266848636  TIP3      1249            0.0000000000
     21121      1385  TIP3      H2             60.1840888957       22.1357414228       75.6383282785  TIP3      1249            0.0000000000
     21122      1386  TIP3      OH2            63.6468655960       29.2758583050       74.8385963644  TIP3      1250            0.0000000000
     21123      1386  TIP3      H1             62.9235708805       29.8704130657       75.1285429613  TIP3      1250            0.0000000000
     21124      1386  TIP3      H2             64.2622998847       29.9266688262       74.4493997174  TIP3      1250            0.0000000000
     21125      1387  TIP3      OH2            60.7496639634       23.8020393657       72.8900932890  TIP3      1251            0.0000000000
     21126      1387  TIP3      H1             61.3968297925       24.2865833515       73.4435129913  TIP3      1251            0.0000000000
     21127      1387  TIP3      H2             61.3415796336       23.3092415328       72.2782472821  TIP3      1251            0.0000000000
     21128      1388  TIP3      OH2            61.7474698969       31.3194010002       75.5705768733  TIP3      1252            0.0000000000
     21129      1388  TIP3      H1             61.4446471280       32.1397713801       75.1552917654  TIP3      1252            0.0000000000
     21130      1388  TIP3      H2             60.9749677035       31.1389637419       76.1493843289  TIP3      1252            0.0000000000
     21131      1389  TIP3      OH2            57.9826503488       31.0694958119       66.2797765681  TIP3      1253            0.0000000000
     21132      1389  TIP3      H1             58.0512155181       31.6410826325       65.4855195643  TIP3      1253            0.0000000000
     21133      1389  TIP3      H2             58.1765643445       31.7041859425       67.0051903179  TIP3      1253            0.0000000000
     21134      1390  TIP3      OH2            64.5939502307       19.2321716383       72.1090206638  TIP3      1254            0.0000000000
     21135      1390  TIP3      H1             64.6836361260       18.4164625595       72.6136966895  TIP3      1254            0.0000000000
     21136      1390  TIP3      H2             63.7661230330       19.6074950864       72.4965200324  TIP3      1254            0.0000000000
     21137      1391  TIP3      OH2            62.5024440300       28.4984665610       69.5975248954  TIP3      1255            0.0000000000
     21138      1391  TIP3      H1             62.0793040638       28.1591039574       68.7771836653  TIP3      1255            0.0000000000
     21139      1391  TIP3      H2             63.0467930098       27.7160858910       69.8564490861  TIP3      1255            0.0000000000
     21140      1392  TIP3      OH2            63.2413631369       31.9744243113       72.2938739614  TIP3      1256            0.0000000000
     21141      1392  TIP3      H1             62.7915428953       32.2006534344       71.4480700211  TIP3      1256            0.0000000000
     21142      1392  TIP3      H2             62.8384134135       31.1014095182       72.5050467067  TIP3      1256            0.0000000000
     21143      1393  TIP3      OH2            62.8829217799       27.0915698748       73.4160367947  TIP3      1257            0.0000000000
     21144      1393  TIP3      H1             63.1197540629       27.1504706695       72.4721821749  TIP3      1257            0.0000000000
     21145      1393  TIP3      H2             63.2446030628       27.9106691783       73.8228896577  TIP3      1257            0.0000000000
     21146      1394  TIP3      OH2            63.5053336467       31.4417135177       77.5537206217  TIP3      1258            0.0000000000
     21147      1394  TIP3      H1             63.0268590326       32.1389139112       78.0350013428  TIP3      1258            0.0000000000
     21148      1394  TIP3      H2             62.9358637125       31.3707668603       76.7472965109  TIP3      1258            0.0000000000
     21149      1395  TIP3      OH2            60.4924465889       28.6164118689       76.5572722436  TIP3      1259            0.0000000000
     21150      1395  TIP3      H1             60.7147659634       29.1251780023       77.3635743422  TIP3      1259            0.0000000000
     21151      1395  TIP3      H2             59.8657438616       27.9775605216       76.9392252234  TIP3      1259            0.0000000000
     21152      1396  TIP3      OH2            62.2649953929       33.4659963481       78.9034560240  TIP3      1260            0.0000000000
     21153      1396  TIP3      H1             61.8891251851       33.6786941533       78.0314854145  TIP3      1260            0.0000000000
     21154      1396  TIP3      H2             61.4082097536       33.3505547548       79.3994467750  TIP3      1260            0.0000000000
     21155      1397  TIP3      OH2            61.3171655580       27.5592079561       67.3219389808  TIP3      1261            0.0000000000
     21156      1397  TIP3      H1             61.1115429707       28.4459601853       66.9500508884  TIP3      1261            0.0000000000
     21157      1397  TIP3      H2             60.5541726869       27.0691835903       67.0101066615  TIP3      1261            0.0000000000
     21158      1398  TIP3      OH2            57.7351108545       30.1127526402       76.4331190405  TIP3      1262            0.0000000000
     21159      1398  TIP3      H1             57.3325937066       29.9538867500       75.5655676934  TIP3      1262            0.0000000000
     21160      1398  TIP3      H2             57.6788257796       29.2091911005       76.8344378982  TIP3      1262            0.0000000000
     21161      1399  TIP3      OH2            57.2821331519       32.9777002116       72.6346603885  TIP3      1263            0.0000000000
     21162      1399  TIP3      H1             58.0309259996       32.3982460339       72.8041388764  TIP3      1263            0.0000000000
     21163      1399  TIP3      H2             57.5081644035       33.7400464587       73.1906473390  TIP3      1263            0.0000000000
     21164      1400  TIP3      OH2            60.3796220314       35.6334946945       69.2592568113  TIP3      1264            0.0000000000
     21165      1400  TIP3      H1             60.6959009092       35.7452951123       70.1835114778  TIP3      1264            0.0000000000
     21166      1400  TIP3      H2             59.5037003915       35.2323995400       69.3951326340  TIP3      1264            0.0000000000
     21167      1401  TIP3      OH2            59.5983751752       31.7726832362       77.2930084420  TIP3      1265            0.0000000000
     21168      1401  TIP3      H1             59.8531683435       31.4133628214       78.1745483494  TIP3      1265            0.0000000000
     21169      1401  TIP3      H2             58.9076043775       31.1290817770       76.9827269601  TIP3      1265            0.0000000000
     21170      1402  TIP3      OH2            62.4102573675       20.1606966829       73.3325384068  TIP3      1266            0.0000000000
     21171      1402  TIP3      H1             61.5521105823       20.5493380662       73.0800685266  TIP3      1266            0.0000000000
     21172      1402  TIP3      H2             62.6053188518       20.6454169122       74.1633032857  TIP3      1266            0.0000000000
     21173      1403  TIP3      OH2            62.4869992230       24.8150257701       74.7273265951  TIP3      1267            0.0000000000
     21174      1403  TIP3      H1             61.6805774103       24.9473835078       75.2666601143  TIP3      1267            0.0000000000
     21175      1403  TIP3      H2             62.5537827495       25.6732887321       74.2415587850  TIP3      1267            0.0000000000
     21176      1404  TIP3      OH2            62.2039700965       24.7254714896       69.4405994494  TIP3      1268            0.0000000000
     21177      1404  TIP3      H1             61.4852406852       25.2772936851       69.1042946106  TIP3      1268            0.0000000000
     21178      1404  TIP3      H2             62.7077289584       24.5660048781       68.6034575621  TIP3      1268            0.0000000000
     21179      1405  TIP3      OH2            59.9679102131       25.0944627600       75.7180630341  TIP3      1269            0.0000000000
     21180      1405  TIP3      H1             60.2724916960       25.2226508789       76.6274467979  TIP3      1269            0.0000000000
     21181      1405  TIP3      H2             59.5775472897       24.1988947336       75.8173236108  TIP3      1269            0.0000000000
     21182      1406  TIP3      OH2            56.8715607189       22.1680323272       70.3490333417  TIP3      1270            0.0000000000
     21183      1406  TIP3      H1             57.6385755073       22.1308284590       70.9401119613  TIP3      1270            0.0000000000
     21184      1406  TIP3      H2             57.2591428011       22.1942037946       69.4494653857  TIP3      1270            0.0000000000
     21185      1407  TIP3      OH2            64.4216350705       22.6723617794       70.0327855863  TIP3      1271            0.0000000000
     21186      1407  TIP3      H1             63.5399938944       22.4165511131       70.3754024015  TIP3      1271            0.0000000000
     21187      1407  TIP3      H2             64.9622829036       22.6473768557       70.8374382365  TIP3      1271            0.0000000000
     21188      1408  TIP3      OH2            59.5526713079       24.0175222754       69.4708460387  TIP3      1272            0.0000000000
     21189      1408  TIP3      H1             59.0886705941       24.1565098362       68.6298910477  TIP3      1272            0.0000000000
     21190      1408  TIP3      H2             60.2193361197       23.3528822503       69.2359119989  TIP3      1272            0.0000000000
     21191      1409  TIP3      OH2            63.3016340354       24.6721846651       67.0752793159  TIP3      1273            0.0000000000
     21192      1409  TIP3      H1             64.2069274065       24.5258315870       66.7744041075  TIP3      1273            0.0000000000
     21193      1409  TIP3      H2             62.8973905458       24.9572336553       66.2271488869  TIP3      1273            0.0000000000
     21194      1410  TIP3      OH2            62.3652645743       25.2244894025       64.6089519405  TIP3      1274            0.0000000000
     21195      1410  TIP3      H1             61.6966121089       24.6331033259       64.2259944041  TIP3      1274            0.0000000000
     21196      1410  TIP3      H2             62.5307268659       25.8313668296       63.8727241362  TIP3      1274            0.0000000000
     21197      1411  TIP3      OH2            60.1735134495       29.8670145790       79.4154295766  TIP3      1275            0.0000000000
     21198      1411  TIP3      H1             60.7639874541       29.9418024232       80.1968256132  TIP3      1275            0.0000000000
     21199      1411  TIP3      H2             59.2999772507       29.8394213747       79.8713298843  TIP3      1275            0.0000000000
     21200      1412  TIP3      OH2            60.8147210762       21.1570595390       68.6232853432  TIP3      1276            0.0000000000
     21201      1412  TIP3      H1             60.1779820843       20.5011392002       68.9643371325  TIP3      1276            0.0000000000
     21202      1412  TIP3      H2             61.3851959832       20.6238804460       68.0411904177  TIP3      1276            0.0000000000
     21203      1413  TIP3      OH2            64.8373490062       23.4058513329       74.7002907977  TIP3      1277            0.0000000000
     21204      1413  TIP3      H1             64.1050169259       24.0170660181       74.8904344028  TIP3      1277            0.0000000000
     21205      1413  TIP3      H2             65.4075887583       23.9553424990       74.1223823107  TIP3      1277            0.0000000000
     21206      1414  TIP3      OH2            64.9080724789       30.3936205907       66.2704413789  TIP3      1278            0.0000000000
     21207      1414  TIP3      H1             64.2930265244       29.8246919895       65.7546726655  TIP3      1278            0.0000000000
     21208      1414  TIP3      H2             64.4297637507       30.4738500994       67.1114180037  TIP3      1278            0.0000000000
     21209      1415  TIP3      OH2            61.6374959095       29.6622644565       72.1415579735  TIP3      1279            0.0000000000
     21210      1415  TIP3      H1             61.7556971405       29.2132640891       71.2816572395  TIP3      1279            0.0000000000
     21211      1415  TIP3      H2             61.2124713822       28.9650944783       72.6768403586  TIP3      1279            0.0000000000
     21212      1416  TIP3      OH2            57.2676344509       27.6021185684       77.4299341763  TIP3      1280            0.0000000000
     21213      1416  TIP3      H1             57.1685857898       26.9275747600       78.1336152666  TIP3      1280            0.0000000000
     21214      1416  TIP3      H2             56.7445463851       27.2242118875       76.6935951103  TIP3      1280            0.0000000000
     21215      1417  TIP3      OH2            65.0333479112       27.6124673991       78.9973736044  TIP3      1281            0.0000000000
     21216      1417  TIP3      H1             64.1598031440       27.2703656657       78.6968677713  TIP3      1281            0.0000000000
     21217      1417  TIP3      H2             65.4773256665       26.7958978505       79.2808221306  TIP3      1281            0.0000000000
     21218      1418  TIP3      OH2            62.4982980461       32.8812106704       69.7792570416  TIP3      1282            0.0000000000
     21219      1418  TIP3      H1             62.8805260593       33.7496716773       69.5206838878  TIP3      1282            0.0000000000
     21220      1418  TIP3      H2             61.6082557195       32.9865414666       69.3935030370  TIP3      1282            0.0000000000
     21221      1419  TIP3      OH2            64.2829195828       30.8775294218       69.1023605950  TIP3      1283            0.0000000000
     21222      1419  TIP3      H1             63.5374637311       31.5216067965       69.1334419364  TIP3      1283            0.0000000000
     21223      1419  TIP3      H2             63.8421680593       30.0226728858       69.3024866350  TIP3      1283            0.0000000000
     21224      1420  TIP3      OH2            65.0377910016       34.6453996354       76.0016622144  TIP3      1284            0.0000000000
     21225      1420  TIP3      H1             65.0130641321       35.2607268049       75.2447123126  TIP3      1284            0.0000000000
     21226      1420  TIP3      H2             65.5484530932       33.9236104478       75.6109673500  TIP3      1284            0.0000000000
     21227      1421  TIP3      OH2            63.1543713047       35.4720712425       68.8731681386  TIP3      1285            0.0000000000
     21228      1421  TIP3      H1             62.2041076399       35.7220016385       68.8248579250  TIP3      1285            0.0000000000
     21229      1421  TIP3      H2             63.5094009413       36.2934823936       69.2693474672  TIP3      1285            0.0000000000
     21230      1422  TIP3      OH2            59.2863551421       22.6946838932       76.9930050720  TIP3      1286            0.0000000000
     21231      1422  TIP3      H1             58.8895160363       23.0516298932       77.8029723746  TIP3      1286            0.0000000000
     21232      1422  TIP3      H2             58.9884990583       21.7673022910       77.0724292808  TIP3      1286            0.0000000000
     21233      1423  TIP3      OH2            58.7562930026       34.1289684820       74.9692973459  TIP3      1287            0.0000000000
     21234      1423  TIP3      H1             59.4274082063       33.7018868672       75.5242136968  TIP3      1287            0.0000000000
     21235      1423  TIP3      H2             58.1230311363       34.4400850711       75.6332539237  TIP3      1287            0.0000000000
     21236      1424  TIP3      OH2            64.0534993403       33.2624534484       62.4001211834  TIP3      1288            0.0000000000
     21237      1424  TIP3      H1             63.7051973775       32.5683461248       61.8146137440  TIP3      1288            0.0000000000
     21238      1424  TIP3      H2             63.6797086416       32.9505712123       63.2444246601  TIP3      1288            0.0000000000
     21239      1425  TIP3      OH2            63.6529374520       32.6648209862       65.2063513624  TIP3      1289            0.0000000000
     21240      1425  TIP3      H1             64.3989068428       32.1187863901       65.5303439396  TIP3      1289            0.0000000000
     21241      1425  TIP3      H2             63.7520913722       33.5341155150       65.6441101149  TIP3      1289            0.0000000000
     21242      1426  TIP3      OH2            60.4278266023       29.7254799157       65.6025502284  TIP3      1290            0.0000000000
     21243      1426  TIP3      H1             59.5704373247       30.0285241479       65.9500316182  TIP3      1290            0.0000000000
     21244      1426  TIP3      H2             60.7757089317       30.5194194359       65.1582447308  TIP3      1290            0.0000000000
     21245      1427  TIP3      OH2            65.7436533907       23.8042720505       67.6478936757  TIP3      1291            0.0000000000
     21246      1427  TIP3      H1             66.5762935769       23.4308653330       67.9827964894  TIP3      1291            0.0000000000
     21247      1427  TIP3      H2             65.1443645739       23.5102797270       68.3879668590  TIP3      1291            0.0000000000
     21248      1428  TIP3      OH2            63.5481001607       35.3298395659       66.0422315949  TIP3      1292            0.0000000000
     21249      1428  TIP3      H1             63.3787980314       36.1782521840       65.5902701678  TIP3      1292            0.0000000000
     21250      1428  TIP3      H2             63.4294281611       35.5384261346       66.9909682366  TIP3      1292            0.0000000000
     21251      1429  TIP3      OH2            61.8104769858       21.4368408702       65.6999583912  TIP3      1293            0.0000000000
     21252      1429  TIP3      H1             61.5509464272       22.3234703764       65.9535909285  TIP3      1293            0.0000000000
     21253      1429  TIP3      H2             62.7607019112       21.4189060984       65.9488718681  TIP3      1293            0.0000000000
     21254      1430  TIP3      OH2            61.0027468608       32.2253927904       64.2614388728  TIP3      1294            0.0000000000
     21255      1430  TIP3      H1             61.7463506414       32.6110699515       64.7669281107  TIP3      1294            0.0000000000
     21256      1430  TIP3      H2             61.4861042055       31.7814901482       63.5341081629  TIP3      1294            0.0000000000
     21257      1431  TIP3      OH2            59.8076192280       19.7270161507       72.4872779384  TIP3      1295            0.0000000000
     21258      1431  TIP3      H1             59.7176877840       19.5622725385       71.5297702952  TIP3      1295            0.0000000000
     21259      1431  TIP3      H2             59.5140561971       18.8554530659       72.8475405770  TIP3      1295            0.0000000000
     21260      1432  TIP3      OH2            58.4850871662       33.0154694700       68.2355885004  TIP3      1296            0.0000000000
     21261      1432  TIP3      H1             57.7964570502       33.3835537420       68.7984737824  TIP3      1296            0.0000000000
     21262      1432  TIP3      H2             58.6048264678       33.7413649149       67.5856726218  TIP3      1296            0.0000000000
     21263      1433  TIP3      OH2            57.8169053723       36.1470868287       79.5191760414  TIP3      1297            0.0000000000
     21264      1433  TIP3      H1             58.4648295392       36.1191711894       80.2667642408  TIP3      1297            0.0000000000
     21265      1433  TIP3      H2             57.2498925777       35.3910124514       79.7342585526  TIP3      1297            0.0000000000
     21266      1434  TIP3      OH2            62.3403871906       35.4169360695       81.1002197175  TIP3      1298            0.0000000000
     21267      1434  TIP3      H1             63.1612907919       35.4788205007       81.6172437194  TIP3      1298            0.0000000000
     21268      1434  TIP3      H2             62.5168610949       34.6550851319       80.5166884927  TIP3      1298            0.0000000000
     21269      1435  TIP3      OH2            57.6434756381       29.8918971649       80.5157470769  TIP3      1299            0.0000000000
     21270      1435  TIP3      H1             57.2219479192       29.0337977353       80.6576913899  TIP3      1299            0.0000000000
     21271      1435  TIP3      H2             57.0412897706       30.3076878583       79.8543850164  TIP3      1299            0.0000000000
     21272      1436  TIP3      OH2            62.7930862391       30.6351930666       62.3852418680  TIP3      1300            0.0000000000
     21273      1436  TIP3      H1             62.8716215140       30.0008566539       63.1179898116  TIP3      1300            0.0000000000
     21274      1436  TIP3      H2             63.1125889937       30.0589917326       61.6559891629  TIP3      1300            0.0000000000
     21275      1437  TIP3      OH2            64.7240806264       30.2903206587       79.7007335730  TIP3      1301            0.0000000000
     21276      1437  TIP3      H1             64.2948131524       30.6336294918       78.8874560602  TIP3      1301            0.0000000000
     21277      1437  TIP3      H2             64.8504850231       29.3399109273       79.4526664229  TIP3      1301            0.0000000000
     21278      1438  TIP3      OH2            59.1717401793       26.8073869969       80.0994179272  TIP3      1302            0.0000000000
     21279      1438  TIP3      H1             59.8266513721       26.1771971592       80.4187254851  TIP3      1302            0.0000000000
     21280      1438  TIP3      H2             59.3663564730       27.5651735993       80.6901394066  TIP3      1302            0.0000000000
     21281      1439  TIP3      OH2            63.2741339304       28.6172036210       64.9962332000  TIP3      1303            0.0000000000
     21282      1439  TIP3      H1             62.9197240378       27.9787240045       65.6278024724  TIP3      1303            0.0000000000
     21283      1439  TIP3      H2             64.0778011662       28.2171111886       64.6101772253  TIP3      1303            0.0000000000
     21284      1440  TIP3      OH2            62.7927338594       27.0630258877       77.4844934256  TIP3      1304            0.0000000000
     21285      1440  TIP3      H1             62.2038597637       27.6987581006       77.0512721445  TIP3      1304            0.0000000000
     21286      1440  TIP3      H2             63.4940293673       26.9416191260       76.8199346312  TIP3      1304            0.0000000000
     21287      1441  TIP3      OH2            62.9988016319       24.1080760041       77.8285388161  TIP3      1305            0.0000000000
     21288      1441  TIP3      H1             63.7232552770       23.4566542373       77.7133747532  TIP3      1305            0.0000000000
     21289      1441  TIP3      H2             63.4319680214       24.9528257702       77.6464098173  TIP3      1305            0.0000000000
     21290      1442  TIP3      OH2            63.2555480991       21.4353538138       75.5938413382  TIP3      1306            0.0000000000
     21291      1442  TIP3      H1             63.8427582987       22.1860794335       75.3615880407  TIP3      1306            0.0000000000
     21292      1442  TIP3      H2             62.3773056775       21.8727756359       75.5807750702  TIP3      1306            0.0000000000
     21293      1443  TIP3      OH2            65.2667702735       27.2879786143       76.1417369467  TIP3      1307            0.0000000000
     21294      1443  TIP3      H1             65.4541386383       26.7891909400       75.3372423489  TIP3      1307            0.0000000000
     21295      1443  TIP3      H2             64.8089628731       28.0735534351       75.8023751182  TIP3      1307            0.0000000000
     21296      1444  TIP3      OH2            61.6750900909       24.5859152508       80.1573288009  TIP3      1308            0.0000000000
     21297      1444  TIP3      H1             60.8953372555       24.1243062881       79.7937121240  TIP3      1308            0.0000000000
     21298      1444  TIP3      H2             62.3028759694       24.4640978248       79.4070768614  TIP3      1308            0.0000000000
     21299      1445  TIP3      OH2            64.0620817785       18.9370992834       75.9224846027  TIP3      1309            0.0000000000
     21300      1445  TIP3      H1             63.8578766900       19.9092281273       75.9574826219  TIP3      1309            0.0000000000
     21301      1445  TIP3      H2             63.1560609154       18.6218623717       75.7664009698  TIP3      1309            0.0000000000
     21302      1446  TIP3      OH2            64.7039287674       24.3230366682       80.3219172549  TIP3      1310            0.0000000000
     21303      1446  TIP3      H1             64.0994512248       23.8030793596       80.9062507410  TIP3      1310            0.0000000000
     21304      1446  TIP3      H2             65.0970376030       23.5952436831       79.7919977705  TIP3      1310            0.0000000000
     21305      1447  TIP3      OH2            59.5647798881       22.7316653481       80.1417085840  TIP3      1311            0.0000000000
     21306      1447  TIP3      H1             59.4990937244       21.8511132856       79.7041665367  TIP3      1311            0.0000000000
     21307      1447  TIP3      H2             59.5726116165       22.4670348636       81.0896228794  TIP3      1311            0.0000000000
     21308      1448  TIP3      OH2            64.6871561467       18.4931188272       78.9015912726  TIP3      1312            0.0000000000
     21309      1448  TIP3      H1             65.5032571026       17.9943533966       78.6992789553  TIP3      1312            0.0000000000
     21310      1448  TIP3      H2             64.4929127021       18.9542112236       78.0674467973  TIP3      1312            0.0000000000
     21311      1449  TIP3      OH2            64.9638521399       20.3322943607       81.1226715004  TIP3      1313            0.0000000000
     21312      1449  TIP3      H1             65.2614219759       20.1514700956       80.2096508069  TIP3      1313            0.0000000000
     21313      1449  TIP3      H2             64.5111679044       21.1816709140       81.0281144015  TIP3      1313            0.0000000000
     21314      1450  TIP3      OH2            64.2714937754       37.4926769729       64.3606424246  TIP3      1314            0.0000000000
     21315      1450  TIP3      H1             65.2125449987       37.7252120826       64.4897482399  TIP3      1314            0.0000000000
     21316      1450  TIP3      H2             63.8606978104       38.2399533560       64.8295855595  TIP3      1314            0.0000000000
     21317      1451  TIP3      OH2            58.2944961632       32.0494270052       63.7504549947  TIP3      1315            0.0000000000
     21318      1451  TIP3      H1             59.2012829801       32.3934213627       63.9255798523  TIP3      1315            0.0000000000
     21319      1451  TIP3      H2             58.5017981120       31.2728255126       63.2220520627  TIP3      1315            0.0000000000
     21320      1452  TIP3      OH2            56.5994894029       37.0719709095       68.7375267044  TIP3      1316            0.0000000000
     21321      1452  TIP3      H1             55.9337193264       36.5225719150       68.2719940115  TIP3      1316            0.0000000000
     21322      1452  TIP3      H2             56.9418026095       36.4405423965       69.3994655910  TIP3      1316            0.0000000000
     21323      1453  TIP3      OH2            57.4529930292       35.3326419323       70.6931589157  TIP3      1317            0.0000000000
     21324      1453  TIP3      H1             56.7706758472       34.6627307458       70.8837877272  TIP3      1317            0.0000000000
     21325      1453  TIP3      H2             57.5280055132       35.7257264282       71.5830586503  TIP3      1317            0.0000000000
     21326      1454  TIP3      OH2            57.6188448152       28.6486716342       73.0334992667  TIP3      1318            0.0000000000
     21327      1454  TIP3      H1             57.6231474252       28.1920246468       72.1668553206  TIP3      1318            0.0000000000
     21328      1454  TIP3      H2             58.5340836429       28.4868340834       73.3612086135  TIP3      1318            0.0000000000
     21329      1455  TIP3      OH2            57.2200392788       23.6755395913       79.3826270511  TIP3      1319            0.0000000000
     21330      1455  TIP3      H1             58.0622672973       23.3950905431       79.7948147066  TIP3      1319            0.0000000000
     21331      1455  TIP3      H2             56.7040452981       22.8411294536       79.4195353076  TIP3      1319            0.0000000000
     21332      1456  TIP3      OH2            58.4694537810       22.0210562474       72.8766415860  TIP3      1320            0.0000000000
     21333      1456  TIP3      H1             58.8751440604       21.1432070559       72.6859062061  TIP3      1320            0.0000000000
     21334      1456  TIP3      H2             59.1868553719       22.6302922066       72.6417553973  TIP3      1320            0.0000000000
     21335      1457  TIP3      OH2            57.1446125953       24.9705577035       73.5201561237  TIP3      1321            0.0000000000
     21336      1457  TIP3      H1             57.6947215550       24.5188918802       72.8616780924  TIP3      1321            0.0000000000
     21337      1457  TIP3      H2             57.5882670068       25.8265121296       73.5582769091  TIP3      1321            0.0000000000
     21338      1458  TIP3      OH2            56.7057736778       21.8018213548       67.5764398434  TIP3      1322            0.0000000000
     21339      1458  TIP3      H1             55.7288267195       21.7388490696       67.6073241708  TIP3      1322            0.0000000000
     21340      1458  TIP3      H2             56.8848901939       21.6015812888       66.6510653533  TIP3      1322            0.0000000000
     21341      1459  TIP3      OH2            57.1668609142       19.7841026367       75.5396318262  TIP3      1323            0.0000000000
     21342      1459  TIP3      H1             56.4317835765       19.7114533997       76.1752606143  TIP3      1323            0.0000000000
     21343      1459  TIP3      H2             56.8375710170       20.4223981639       74.8794458729  TIP3      1323            0.0000000000
     21344      1460  TIP3      OH2            59.8853352302       33.2638062457       80.0088459876  TIP3      1324            0.0000000000
     21345      1460  TIP3      H1             59.0324655952       33.4766704203       79.6027044615  TIP3      1324            0.0000000000
     21346      1460  TIP3      H2             59.6630630506       33.1157992154       80.9426590411  TIP3      1324            0.0000000000
     21347      1461  TIP3      OH2            62.2490493505       34.3631674483       76.0343910344  TIP3      1325            0.0000000000
     21348      1461  TIP3      H1             62.1336241796       35.3343701005       75.9002853983  TIP3      1325            0.0000000000
     21349      1461  TIP3      H2             63.2203475091       34.2816913277       75.9500813364  TIP3      1325            0.0000000000
     21350      1462  TIP3      OH2            59.5013531665       37.5918558581       75.8784766587  TIP3      1326            0.0000000000
     21351      1462  TIP3      H1             58.7009806154       38.1467931651       75.7397561023  TIP3      1326            0.0000000000
     21352      1462  TIP3      H2             59.5093844289       37.4872644341       76.8397227687  TIP3      1326            0.0000000000
     21353      1463  TIP3      OH2            61.8578893148       36.8549862311       75.0767536423  TIP3      1327            0.0000000000
     21354      1463  TIP3      H1             60.9029937350       37.0503869573       75.2629196631  TIP3      1327            0.0000000000
     21355      1463  TIP3      H2             62.0173596027       37.5719305492       74.4143017126  TIP3      1327            0.0000000000
     21356      1464  TIP3      OH2            59.1444509656       36.2466058311       73.2647791807  TIP3      1328            0.0000000000
     21357      1464  TIP3      H1             58.9514677301       35.6349865891       74.0073744713  TIP3      1328            0.0000000000
     21358      1464  TIP3      H2             59.9968103195       35.8986546769       72.9290656871  TIP3      1328            0.0000000000
     21359      1465  TIP3      OH2            61.4181584044       35.4473949301       71.7382566647  TIP3      1329            0.0000000000
     21360      1465  TIP3      H1             61.0540102590       34.5603688981       71.9769183323  TIP3      1329            0.0000000000
     21361      1465  TIP3      H2             62.3617783239       35.2505822542       71.7012688480  TIP3      1329            0.0000000000
     21362      1466  TIP3      OH2            64.2643103416       34.8976745186       73.4324511802  TIP3      1330            0.0000000000
     21363      1466  TIP3      H1             63.8302925473       34.0946046693       73.1067456117  TIP3      1330            0.0000000000
     21364      1466  TIP3      H2             63.5335488770       35.5062233511       73.6152665818  TIP3      1330            0.0000000000
     21365      1467  TIP3      OH2            59.0275610265       19.1088339567       69.8679402078  TIP3      1331            0.0000000000
     21366      1467  TIP3      H1             58.2168024268       19.0276489450       69.3363662758  TIP3      1331            0.0000000000
     21367      1467  TIP3      H2             59.4489206110       18.2379391234       69.6965979245  TIP3      1331            0.0000000000
     21368      1468  TIP3      OH2            58.1346926871       19.2626551949       64.6467481159  TIP3      1332            0.0000000000
     21369      1468  TIP3      H1             59.0145375211       19.5448338869       64.3442710688  TIP3      1332            0.0000000000
     21370      1468  TIP3      H2             58.1780730182       19.4230307203       65.5955599127  TIP3      1332            0.0000000000
     21371      1469  TIP3      OH2            63.8259832641       18.9858510969       69.6014499900  TIP3      1333            0.0000000000
     21372      1469  TIP3      H1             64.0859282883       19.8424998305       69.2271146976  TIP3      1333            0.0000000000
     21373      1469  TIP3      H2             64.0800659052       19.0720260822       70.5538374360  TIP3      1333            0.0000000000
     21374      1470  TIP3      OH2            58.1750568061       35.2428710143       66.4035702084  TIP3      1334            0.0000000000
     21375      1470  TIP3      H1             57.2192891921       35.2404848083       66.2885315679  TIP3      1334            0.0000000000
     21376      1470  TIP3      H2             58.3796738649       36.1347548540       66.0545621695  TIP3      1334            0.0000000000
     21377      1471  TIP3      OH2            64.4144257919       21.8646643226       66.4906869705  TIP3      1335            0.0000000000
     21378      1471  TIP3      H1             65.2298561104       21.3346811018       66.6157593177  TIP3      1335            0.0000000000
     21379      1471  TIP3      H2             64.7676036647       22.7547804614       66.6269387568  TIP3      1335            0.0000000000
     21380      1472  TIP3      OH2            59.1331593779       20.2018565022       79.0035949918  TIP3      1336            0.0000000000
     21381      1472  TIP3      H1             58.4819578193       19.4721291986       78.9979748030  TIP3      1336            0.0000000000
     21382      1472  TIP3      H2             59.8293820790       19.8285469962       79.5932830881  TIP3      1336            0.0000000000
     21383      1473  TIP3      OH2            61.1506442761       19.3459426487       80.6803787837  TIP3      1337            0.0000000000
     21384      1473  TIP3      H1             62.0663457938       19.2408558270       80.3597083756  TIP3      1337            0.0000000000
     21385      1473  TIP3      H2             61.0152623402       18.4435639236       81.0403120922  TIP3      1337            0.0000000000
     21386      1474  TIP3      OH2            60.0183511746       36.4013730108       63.5672544190  TIP3      1338            0.0000000000
     21387      1474  TIP3      H1             59.1102450728       36.7421825232       63.5883841989  TIP3      1338            0.0000000000
     21388      1474  TIP3      H2             59.8706336832       35.4597144870       63.4236561806  TIP3      1338            0.0000000000
     21389      1475  TIP3      OH2            11.3638587425       47.7854212356       69.5882876483  TIP3      1339            0.0000000000
     21390      1475  TIP3      H1             11.8465902121       48.1275382297       70.3648847503  TIP3      1339            0.0000000000
     21391      1475  TIP3      H2             11.5448426457       48.5169625421       68.9571006122  TIP3      1339            0.0000000000
     21392      1476  TIP3      OH2            10.9283272402       46.5756607736       72.8159831616  TIP3      1340            0.0000000000
     21393      1476  TIP3      H1             11.2672471752       46.2556657463       73.6831075718  TIP3      1340            0.0000000000
     21394      1476  TIP3      H2             10.2620383586       45.8831867524       72.5992243100  TIP3      1340            0.0000000000
     21395      1477  TIP3      OH2             3.5170673097       46.4576946791       74.0166047146  TIP3      1341            0.0000000000
     21396      1477  TIP3      H1              3.4437993679       45.6225031958       74.5028831884  TIP3      1341            0.0000000000
     21397      1477  TIP3      H2              3.9743614521       47.0327424246       74.6649052166  TIP3      1341            0.0000000000
     21398      1478  TIP3      OH2            14.2075796586       49.2356678852       71.1286362006  TIP3      1342            0.0000000000
     21399      1478  TIP3      H1             14.1871280358       48.4854109054       71.7342593702  TIP3      1342            0.0000000000
     21400      1478  TIP3      H2             14.3338638730       49.9975498176       71.7177541696  TIP3      1342            0.0000000000
     21401      1479  TIP3      OH2             3.8597626965       51.0084946674       72.5549359200  TIP3      1343            0.0000000000
     21402      1479  TIP3      H1              3.8298477141       50.0481367987       72.3196839428  TIP3      1343            0.0000000000
     21403      1479  TIP3      H2              4.7992971864       51.0217363458       72.7740258538  TIP3      1343            0.0000000000
     21404      1480  TIP3      OH2             0.1829191557       45.0563998468       68.4979953883  TIP3      1344            0.0000000000
     21405      1480  TIP3      H1              1.0827780380       45.2147156836       68.1845537209  TIP3      1344            0.0000000000
     21406      1480  TIP3      H2              0.2757493728       44.2170018814       68.9678401657  TIP3      1344            0.0000000000
     21407      1481  TIP3      OH2             1.6820784574       46.7107371803       70.8606425746  TIP3      1345            0.0000000000
     21408      1481  TIP3      H1              2.1753195625       45.8603313229       70.9838878958  TIP3      1345            0.0000000000
     21409      1481  TIP3      H2              2.2515980201       47.2240426503       70.2688459765  TIP3      1345            0.0000000000
     21410      1482  TIP3      OH2            11.7873676808       54.7277373992       71.0704658796  TIP3      1346            0.0000000000
     21411      1482  TIP3      H1             12.4285877006       54.1092062855       70.6680486795  TIP3      1346            0.0000000000
     21412      1482  TIP3      H2             11.2774656012       54.1470252291       71.6375133656  TIP3      1346            0.0000000000
     21413      1483  TIP3      OH2             9.2058660490       48.4925801741       73.6303405082  TIP3      1347            0.0000000000
     21414      1483  TIP3      H1              9.6704861307       47.7430706802       73.2049033846  TIP3      1347            0.0000000000
     21415      1483  TIP3      H2              9.9383716556       49.0111348680       74.0258294365  TIP3      1347            0.0000000000
     21416      1484  TIP3      OH2            17.7076234505       40.7134452467       73.6759792113  TIP3      1348            0.0000000000
     21417      1484  TIP3      H1             17.8181558682       41.3190520414       74.4312095732  TIP3      1348            0.0000000000
     21418      1484  TIP3      H2             18.5300449323       40.8806436210       73.1844649505  TIP3      1348            0.0000000000
     21419      1485  TIP3      OH2            12.8611450982       43.7265044875       73.7356700139  TIP3      1349            0.0000000000
     21420      1485  TIP3      H1             12.9386571169       42.7557055121       73.8557102211  TIP3      1349            0.0000000000
     21421      1485  TIP3      H2             12.2644506713       43.7234462719       72.9502387745  TIP3      1349            0.0000000000
     21422      1486  TIP3      OH2             5.8753224232       41.7779972088       70.7595535416  TIP3      1350            0.0000000000
     21423      1486  TIP3      H1              6.0423484132       42.4934240939       70.1118058292  TIP3      1350            0.0000000000
     21424      1486  TIP3      H2              5.3904007246       41.1500195310       70.1994876884  TIP3      1350            0.0000000000
     21425      1487  TIP3      OH2            12.8504261849       41.8522998534       69.5666850607  TIP3      1351            0.0000000000
     21426      1487  TIP3      H1             13.5972223655       41.5490331331       70.1410255528  TIP3      1351            0.0000000000
     21427      1487  TIP3      H2             13.1613649514       42.7138824344       69.2588232669  TIP3      1351            0.0000000000
     21428      1488  TIP3      OH2             2.8400259395       44.3347344940       71.3339582674  TIP3      1352            0.0000000000
     21429      1488  TIP3      H1              3.3167558066       43.8474055423       72.0236791546  TIP3      1352            0.0000000000
     21430      1488  TIP3      H2              3.0847268802       43.8336929647       70.5247254947  TIP3      1352            0.0000000000
     21431      1489  TIP3      OH2             7.4762617773       45.8864567236       70.6803352173  TIP3      1353            0.0000000000
     21432      1489  TIP3      H1              8.1613930223       45.3768995668       71.1743628986  TIP3      1353            0.0000000000
     21433      1489  TIP3      H2              6.9503445420       45.1430154036       70.3027413238  TIP3      1353            0.0000000000
     21434      1490  TIP3      OH2            17.9673227862       42.2145388427       76.0813200604  TIP3      1354            0.0000000000
     21435      1490  TIP3      H1             17.5563670397       42.9945850375       75.6333063648  TIP3      1354            0.0000000000
     21436      1490  TIP3      H2             18.1528100102       42.5764927480       76.9629674291  TIP3      1354            0.0000000000
     21437      1491  TIP3      OH2             4.7020433905       40.6409196050       74.8567559055  TIP3      1355            0.0000000000
     21438      1491  TIP3      H1              4.3955051300       41.2509050938       74.1518534722  TIP3      1355            0.0000000000
     21439      1491  TIP3      H2              4.0396588062       40.7989215434       75.5656350741  TIP3      1355            0.0000000000
     21440      1492  TIP3      OH2            11.4965549101       50.2382176261       68.3449362572  TIP3      1356            0.0000000000
     21441      1492  TIP3      H1             11.4346812965       50.2304724176       67.3612190804  TIP3      1356            0.0000000000
     21442      1492  TIP3      H2             11.5602100808       51.1924417054       68.5211098027  TIP3      1356            0.0000000000
     21443      1493  TIP3      OH2             6.7459936409       48.4107169245       74.7406008465  TIP3      1357            0.0000000000
     21444      1493  TIP3      H1              6.2216964172       49.2310668121       74.8578006522  TIP3      1357            0.0000000000
     21445      1493  TIP3      H2              7.5518326018       48.7625673435       74.3016573386  TIP3      1357            0.0000000000
     21446      1494  TIP3      OH2            15.0331737494       41.4766869539       71.1580197804  TIP3      1358            0.0000000000
     21447      1494  TIP3      H1             15.3952126333       40.6672038937       71.5500478734  TIP3      1358            0.0000000000
     21448      1494  TIP3      H2             15.7692171213       42.0944235889       71.2978189479  TIP3      1358            0.0000000000
     21449      1495  TIP3      OH2             4.3477448229       42.5220208161       72.8610637006  TIP3      1359            0.0000000000
     21450      1495  TIP3      H1              4.8756556412       43.1842420753       73.3820376931  TIP3      1359            0.0000000000
     21451      1495  TIP3      H2              4.9943254463       42.2577275819       72.1529944038  TIP3      1359            0.0000000000
     21452      1496  TIP3      OH2             5.4642374785       50.7154907316       75.4948262585  TIP3      1360            0.0000000000
     21453      1496  TIP3      H1              5.4154353359       51.6330891256       75.1936911475  TIP3      1360            0.0000000000
     21454      1496  TIP3      H2              4.5764497048       50.5911740020       75.8903524885  TIP3      1360            0.0000000000
     21455      1497  TIP3      OH2             1.5471416786       50.8079090681       66.6529570157  TIP3      1361            0.0000000000
     21456      1497  TIP3      H1              1.1259153121       51.6417617519       66.3809267739  TIP3      1361            0.0000000000
     21457      1497  TIP3      H2              1.9604429126       51.0752976984       67.4960110043  TIP3      1361            0.0000000000
     21458      1498  TIP3      OH2            14.5097934468       51.4913328605       72.6022818584  TIP3      1362            0.0000000000
     21459      1498  TIP3      H1             13.5732124909       51.6964355537       72.7715979797  TIP3      1362            0.0000000000
     21460      1498  TIP3      H2             14.6022856375       51.9635381552       71.7346821236  TIP3      1362            0.0000000000
     21461      1499  TIP3      OH2            14.9565053731       39.9297754904       74.7107042196  TIP3      1363            0.0000000000
     21462      1499  TIP3      H1             14.1506692442       40.2936622007       74.2774631024  TIP3      1363            0.0000000000
     21463      1499  TIP3      H2             15.6608953579       40.0680477753       74.0488025509  TIP3      1363            0.0000000000
     21464      1500  TIP3      OH2             7.9928558498       38.0613810779       72.1739142541  TIP3      1364            0.0000000000
     21465      1500  TIP3      H1              7.7471930470       37.1325137540       72.2529458992  TIP3      1364            0.0000000000
     21466      1500  TIP3      H2              7.1424235079       38.5133272638       72.4107137615  TIP3      1364            0.0000000000
     21467      1501  TIP3      OH2            13.9171995362       52.8939603262       70.3948038635  TIP3      1365            0.0000000000
     21468      1501  TIP3      H1             13.8125457647       52.5394730430       69.4911890995  TIP3      1365            0.0000000000
     21469      1501  TIP3      H2             14.6189532891       53.5663008269       70.1962249759  TIP3      1365            0.0000000000
     21470      1502  TIP3      OH2            14.7885178476       51.2407375303       68.3807242530  TIP3      1366            0.0000000000
     21471      1502  TIP3      H1             14.7078586494       50.5647462440       67.6711854095  TIP3      1366            0.0000000000
     21472      1502  TIP3      H2             14.4833092028       50.6953647756       69.1244460799  TIP3      1366            0.0000000000
     21473      1503  TIP3      OH2            16.1653498169       49.9631072371       77.0752076465  TIP3      1367            0.0000000000
     21474      1503  TIP3      H1             15.9477797767       49.2196661034       76.4624137671  TIP3      1367            0.0000000000
     21475      1503  TIP3      H2             17.0452519071       50.1679183574       76.7328299665  TIP3      1367            0.0000000000
     21476      1504  TIP3      OH2            10.8456475306       46.9619188420       66.7063764949  TIP3      1368            0.0000000000
     21477      1504  TIP3      H1             10.3131549231       47.7637461282       66.5220061605  TIP3      1368            0.0000000000
     21478      1504  TIP3      H2             10.8980609976       46.6334454157       65.7788847560  TIP3      1368            0.0000000000
     21479      1505  TIP3      OH2            11.0532689592       45.8733660085       64.2254103018  TIP3      1369            0.0000000000
     21480      1505  TIP3      H1             11.5168545184       45.0460000356       64.3733277993  TIP3      1369            0.0000000000
     21481      1505  TIP3      H2             10.8122184917       45.7738492079       63.2854617458  TIP3      1369            0.0000000000
     21482      1506  TIP3      OH2            18.0127636011       46.5033938005       75.0914362750  TIP3      1370            0.0000000000
     21483      1506  TIP3      H1             17.2608849618       47.1016083021       74.8815943280  TIP3      1370            0.0000000000
     21484      1506  TIP3      H2             18.6703682454       46.7961384194       74.4313835226  TIP3      1370            0.0000000000
     21485      1507  TIP3      OH2            14.2134774297       46.2896485536       67.6834453633  TIP3      1371            0.0000000000
     21486      1507  TIP3      H1             13.4392827253       46.6531968107       68.1381494132  TIP3      1371            0.0000000000
     21487      1507  TIP3      H2             14.8715368607       46.2184153504       68.4103101386  TIP3      1371            0.0000000000
     21488      1508  TIP3      OH2            14.3021151881       45.2925460783       77.0923976746  TIP3      1372            0.0000000000
     21489      1508  TIP3      H1             14.4426929042       46.2390325612       77.2327527312  TIP3      1372            0.0000000000
     21490      1508  TIP3      H2             13.5152572177       45.3326469441       76.5173169389  TIP3      1372            0.0000000000
     21491      1509  TIP3      OH2             5.4972625247       47.5219914307       69.7685534636  TIP3      1373            0.0000000000
     21492      1509  TIP3      H1              5.4015462113       47.1330046578       68.8687710384  TIP3      1373            0.0000000000
     21493      1509  TIP3      H2              6.1956393093       46.9533956372       70.1615009574  TIP3      1373            0.0000000000
     21494      1510  TIP3      OH2             7.1953600489       51.0863008232       72.3622450326  TIP3      1374            0.0000000000
     21495      1510  TIP3      H1              7.2970019745       51.0433345045       71.3881725655  TIP3      1374            0.0000000000
     21496      1510  TIP3      H2              7.9387660917       50.5555654552       72.6905202102  TIP3      1374            0.0000000000
     21497      1511  TIP3      OH2             6.2114966739       46.2082294555       73.1981744557  TIP3      1375            0.0000000000
     21498      1511  TIP3      H1              6.6456059165       46.4746721825       72.3755929595  TIP3      1375            0.0000000000
     21499      1511  TIP3      H2              6.3961079414       46.9682303438       73.8021119639  TIP3      1375            0.0000000000
     21500      1512  TIP3      OH2            12.2028614643       52.0455072199       74.0163313382  TIP3      1376            0.0000000000
     21501      1512  TIP3      H1             11.5068630009       52.3214901104       74.6367008173  TIP3      1376            0.0000000000
     21502      1512  TIP3      H2             12.2981596326       51.0995107002       74.2648214110  TIP3      1376            0.0000000000
     21503      1513  TIP3      OH2             6.8261073403       50.6722743470       77.9150708988  TIP3      1377            0.0000000000
     21504      1513  TIP3      H1              6.1708155795       51.1672957222       78.4711106695  TIP3      1377            0.0000000000
     21505      1513  TIP3      H2              6.3039703938       50.5031056892       77.1019773837  TIP3      1377            0.0000000000
     21506      1514  TIP3      OH2             4.2329371361       47.1363091235       76.6958774011  TIP3      1378            0.0000000000
     21507      1514  TIP3      H1              4.2553068751       47.7035824653       77.4800629821  TIP3      1378            0.0000000000
     21508      1514  TIP3      H2              3.3233946088       46.7778659868       76.8017528499  TIP3      1378            0.0000000000
     21509      1515  TIP3      OH2            11.0813862491       53.6386532779       68.3590913332  TIP3      1379            0.0000000000
     21510      1515  TIP3      H1             10.3283384270       53.4479751173       68.9232590857  TIP3      1379            0.0000000000
     21511      1515  TIP3      H2             10.7987165404       54.4922689727       67.9537867854  TIP3      1379            0.0000000000
     21512      1516  TIP3      OH2             5.2621592521       52.5768561192       78.9760896200  TIP3      1380            0.0000000000
     21513      1516  TIP3      H1              5.0388047950       52.7309605243       78.0397262448  TIP3      1380            0.0000000000
     21514      1516  TIP3      H2              4.3793125285       52.6931397499       79.3892230971  TIP3      1380            0.0000000000
     21515      1517  TIP3      OH2            16.9126169587       37.9253331449       65.8758238361  TIP3      1381            0.0000000000
     21516      1517  TIP3      H1             15.9574136759       37.9357559986       66.1447870521  TIP3      1381            0.0000000000
     21517      1517  TIP3      H2             16.7901307371       38.2780322330       64.9845540096  TIP3      1381            0.0000000000
     21518      1518  TIP3      OH2             5.0839704671       46.6192117346       67.2958211316  TIP3      1382            0.0000000000
     21519      1518  TIP3      H1              4.6320574771       47.4353394233       66.9680025902  TIP3      1382            0.0000000000
     21520      1518  TIP3      H2              4.6054301873       45.9156666402       66.8352187988  TIP3      1382            0.0000000000
     21521      1519  TIP3      OH2             1.2003242187       49.0714203169       76.5829055101  TIP3      1383            0.0000000000
     21522      1519  TIP3      H1              0.6534203810       49.1571449313       75.7740736654  TIP3      1383            0.0000000000
     21523      1519  TIP3      H2              1.3285162232       48.1101520472       76.6155578271  TIP3      1383            0.0000000000
     21524      1520  TIP3      OH2             0.5491953329       52.3430394511       72.5632216975  TIP3      1384            0.0000000000
     21525      1520  TIP3      H1              1.4910929065       52.0817644578       72.5319381743  TIP3      1384            0.0000000000
     21526      1520  TIP3      H2              0.4763507751       52.5694701743       73.5041747450  TIP3      1384            0.0000000000
     21527      1521  TIP3      OH2            18.4648523196       52.6311660172       78.5522922227  TIP3      1385            0.0000000000
     21528      1521  TIP3      H1             18.4719769292       51.6660823007       78.7044087670  TIP3      1385            0.0000000000
     21529      1521  TIP3      H2             17.6912889883       52.9080569242       79.1068367628  TIP3      1385            0.0000000000
     21530      1522  TIP3      OH2             9.7607753282       52.1032003344       77.7023607288  TIP3      1386            0.0000000000
     21531      1522  TIP3      H1              9.7604434160       52.8066330534       78.3854709878  TIP3      1386            0.0000000000
     21532      1522  TIP3      H2              8.8441713566       51.7773325993       77.7385864460  TIP3      1386            0.0000000000
     21533      1523  TIP3      OH2            10.2052066204       55.7731011167       67.0275891279  TIP3      1387            0.0000000000
     21534      1523  TIP3      H1             10.3900224471       55.9526019597       66.0782509943  TIP3      1387            0.0000000000
     21535      1523  TIP3      H2             10.0876814684       56.6960285691       67.3424622318  TIP3      1387            0.0000000000
     21536      1524  TIP3      OH2             3.9311522284       54.7041290581       69.4215777147  TIP3      1388            0.0000000000
     21537      1524  TIP3      H1              4.3059897946       54.3403776877       70.2501686902  TIP3      1388            0.0000000000
     21538      1524  TIP3      H2              3.2464910398       54.0369483154       69.2521162490  TIP3      1388            0.0000000000
     21539      1525  TIP3      OH2            13.2399340204       55.0273189858       67.0887861445  TIP3      1389            0.0000000000
     21540      1525  TIP3      H1             12.3778637899       55.4411366464       67.0101041667  TIP3      1389            0.0000000000
     21541      1525  TIP3      H2             12.9746272927       54.1057659980       67.2451135585  TIP3      1389            0.0000000000
     21542      1526  TIP3      OH2            15.8636457833       43.7202833029       79.1248931647  TIP3      1390            0.0000000000
     21543      1526  TIP3      H1             15.4069801659       44.1854766809       78.3942368137  TIP3      1390            0.0000000000
     21544      1526  TIP3      H2             15.7995297902       42.7924762405       78.8185411877  TIP3      1390            0.0000000000
     21545      1527  TIP3      OH2             3.3122222488       50.6133627609       77.2653108594  TIP3      1391            0.0000000000
     21546      1527  TIP3      H1              3.4596830519       49.9587519533       77.9844104916  TIP3      1391            0.0000000000
     21547      1527  TIP3      H2              2.4628651230       50.2291787129       76.9291010876  TIP3      1391            0.0000000000
     21548      1528  TIP3      OH2             5.7741099142       39.3151201558       72.8492582291  TIP3      1392            0.0000000000
     21549      1528  TIP3      H1              4.8699793215       39.3303063962       72.4827393598  TIP3      1392            0.0000000000
     21550      1528  TIP3      H2              5.5965614894       39.6581876123       73.7527035775  TIP3      1392            0.0000000000
     21551      1529  TIP3      OH2            10.7789193067       38.6865188859       76.2407421248  TIP3      1393            0.0000000000
     21552      1529  TIP3      H1             11.1909107876       38.2562247800       77.0299229783  TIP3      1393            0.0000000000
     21553      1529  TIP3      H2              9.8235742673       38.5999614078       76.4385929930  TIP3      1393            0.0000000000
     21554      1530  TIP3      OH2            13.3465028400       42.7128020446       77.3195415234  TIP3      1394            0.0000000000
     21555      1530  TIP3      H1             12.7357605210       42.5135205326       78.0769790679  TIP3      1394            0.0000000000
     21556      1530  TIP3      H2             13.6583589895       43.5997558923       77.5658541307  TIP3      1394            0.0000000000
     21557      1531  TIP3      OH2             5.8792187770       43.8569646185       74.5202506346  TIP3      1395            0.0000000000
     21558      1531  TIP3      H1              5.3289919171       44.0214234413       75.3138007166  TIP3      1395            0.0000000000
     21559      1531  TIP3      H2              5.8861720009       44.7437147686       74.0811006335  TIP3      1395            0.0000000000
     21560      1532  TIP3      OH2             6.0698229720       44.0470982311       69.1493828421  TIP3      1396            0.0000000000
     21561      1532  TIP3      H1              5.1338750736       44.2248776282       68.9340880159  TIP3      1396            0.0000000000
     21562      1532  TIP3      H2              6.4345288611       43.8149357888       68.2515948692  TIP3      1396            0.0000000000
     21563      1533  TIP3      OH2            11.3912344311       44.3833738110       67.3236815590  TIP3      1397            0.0000000000
     21564      1533  TIP3      H1             11.2863702795       45.3574837481       67.2791367970  TIP3      1397            0.0000000000
     21565      1533  TIP3      H2             12.2835173629       44.2445913311       66.9628797616  TIP3      1397            0.0000000000
     21566      1534  TIP3      OH2            10.2631991812       45.0629414635       79.5620399348  TIP3      1398            0.0000000000
     21567      1534  TIP3      H1              9.9961636323       44.1562095397       79.8063065534  TIP3      1398            0.0000000000
     21568      1534  TIP3      H2             11.1756536262       45.0432884677       79.9112875830  TIP3      1398            0.0000000000
     21569      1535  TIP3      OH2            11.7834125945       43.7010513107       71.3484451235  TIP3      1399            0.0000000000
     21570      1535  TIP3      H1             12.1955836629       44.4502749005       70.8997117079  TIP3      1399            0.0000000000
     21571      1535  TIP3      H2             12.0863519227       42.9527869803       70.7930498204  TIP3      1399            0.0000000000
     21572      1536  TIP3      OH2             3.1082590581       43.9104910434       75.6343775032  TIP3      1400            0.0000000000
     21573      1536  TIP3      H1              3.1322624179       44.1370424800       76.5748078144  TIP3      1400            0.0000000000
     21574      1536  TIP3      H2              3.0306540224       42.9420580312       75.6761739150  TIP3      1400            0.0000000000
     21575      1537  TIP3      OH2             1.4993071429       40.9751360863       69.8897468523  TIP3      1401            0.0000000000
     21576      1537  TIP3      H1              1.6784303472       41.2676296583       70.8061576218  TIP3      1401            0.0000000000
     21577      1537  TIP3      H2              1.6407264793       40.0270569695       70.0010760252  TIP3      1401            0.0000000000
     21578      1538  TIP3      OH2             1.3932756519       42.3560651628       65.8089163480  TIP3      1402            0.0000000000
     21579      1538  TIP3      H1              1.9537531030       43.1419107586       65.7714209422  TIP3      1402            0.0000000000
     21580      1538  TIP3      H2              0.7357476360       42.5890932326       65.1445144858  TIP3      1402            0.0000000000
     21581      1539  TIP3      OH2            11.8100914098       45.6593775346       75.2520785926  TIP3      1403            0.0000000000
     21582      1539  TIP3      H1             12.2195189773       44.8437191459       74.8772667540  TIP3      1403            0.0000000000
     21583      1539  TIP3      H2             11.1745506746       45.2495626090       75.8884943244  TIP3      1403            0.0000000000
     21584      1540  TIP3      OH2             8.5289101432       41.9866492581       69.9296301755  TIP3      1404            0.0000000000
     21585      1540  TIP3      H1              7.6351778413       41.7636267718       70.2720732864  TIP3      1404            0.0000000000
     21586      1540  TIP3      H2              9.0857694868       41.3400488101       70.4127480552  TIP3      1404            0.0000000000
     21587      1541  TIP3      OH2             3.2720860826       43.2031334139       68.9645680316  TIP3      1405            0.0000000000
     21588      1541  TIP3      H1              2.3986295565       42.8695639446       68.7071540264  TIP3      1405            0.0000000000
     21589      1541  TIP3      H2              3.7480967287       42.3441429692       68.9446200471  TIP3      1405            0.0000000000
     21590      1542  TIP3      OH2             7.0818486613       43.5864747591       66.7567428552  TIP3      1406            0.0000000000
     21591      1542  TIP3      H1              7.9347624579       43.5262889672       66.3142395885  TIP3      1406            0.0000000000
     21592      1542  TIP3      H2              6.4922686920       43.8146439009       65.9897488899  TIP3      1406            0.0000000000
     21593      1543  TIP3      OH2            12.7860998165       40.9360605837       73.4450367906  TIP3      1407            0.0000000000
     21594      1543  TIP3      H1             12.0128808760       40.8873743575       74.0432479719  TIP3      1407            0.0000000000
     21595      1543  TIP3      H2             12.5732977926       40.3925074888       72.6687329763  TIP3      1407            0.0000000000
     21596      1544  TIP3      OH2            16.0273571068       56.6502824915       79.8942171861  TIP3      1408            0.0000000000
     21597      1544  TIP3      H1             16.3177578328       56.8984976546       78.9945687695  TIP3      1408            0.0000000000
     21598      1544  TIP3      H2             16.7439231323       57.0655043018       80.4137227389  TIP3      1408            0.0000000000
     21599      1545  TIP3      OH2             3.6173901307       48.8258017931       79.2280037390  TIP3      1409            0.0000000000
     21600      1545  TIP3      H1              4.2038145301       48.9305222795       80.0154051476  TIP3      1409            0.0000000000
     21601      1545  TIP3      H2              2.7302377234       48.9933506295       79.6094297857  TIP3      1409            0.0000000000
     21602      1546  TIP3      OH2             9.3266510615       44.4123283710       71.9249628875  TIP3      1410            0.0000000000
     21603      1546  TIP3      H1             10.2350317901       44.1299418071       71.6599993992  TIP3      1410            0.0000000000
     21604      1546  TIP3      H2              8.9208242842       43.5388044918       71.9365393712  TIP3      1410            0.0000000000
     21605      1547  TIP3      OH2             4.2695038889       40.6839510771       68.8774175176  TIP3      1411            0.0000000000
     21606      1547  TIP3      H1              3.8993873760       39.8188244313       69.1748629997  TIP3      1411            0.0000000000
     21607      1547  TIP3      H2              4.8146283733       40.3766042879       68.1404237976  TIP3      1411            0.0000000000
     21608      1548  TIP3      OH2             8.1740476885       42.5329150101       74.4901517482  TIP3      1412            0.0000000000
     21609      1548  TIP3      H1              7.3804054702       43.0898515740       74.3514672797  TIP3      1412            0.0000000000
     21610      1548  TIP3      H2              8.8053110755       43.1720612721       74.8436832245  TIP3      1412            0.0000000000
     21611      1549  TIP3      OH2             8.8422849269       48.7346674850       66.6416199265  TIP3      1413            0.0000000000
     21612      1549  TIP3      H1              8.1578452640       48.3254633880       66.0605768910  TIP3      1413            0.0000000000
     21613      1549  TIP3      H2              8.2472717769       49.1458957261       67.3023464684  TIP3      1413            0.0000000000
     21614      1550  TIP3      OH2            16.2163663211       48.4600276384       74.9488465749  TIP3      1414            0.0000000000
     21615      1550  TIP3      H1             16.7424528039       48.9292603380       74.2579773911  TIP3      1414            0.0000000000
     21616      1550  TIP3      H2             15.5344393585       48.0250383609       74.3926650156  TIP3      1414            0.0000000000
     21617      1551  TIP3      OH2            12.2789627008       41.5166221620       64.6060965567  TIP3      1415            0.0000000000
     21618      1551  TIP3      H1             11.5842930699       42.1432917671       64.3671324813  TIP3      1415            0.0000000000
     21619      1551  TIP3      H2             13.0697935829       41.9917485371       64.3022516414  TIP3      1415            0.0000000000
     21620      1552  TIP3      OH2            10.3711301347       49.3348341252       77.5199277251  TIP3      1416            0.0000000000
     21621      1552  TIP3      H1              9.7995004454       48.9024430109       78.1657832758  TIP3      1416            0.0000000000
     21622      1552  TIP3      H2             10.2964327267       50.2549713205       77.8192586996  TIP3      1416            0.0000000000
     21623      1553  TIP3      OH2            13.7908565300       43.9436324649       65.9836096933  TIP3      1417            0.0000000000
     21624      1553  TIP3      H1             14.4397347364       43.5820877977       66.6174380025  TIP3      1417            0.0000000000
     21625      1553  TIP3      H2             13.9197191272       44.8861205581       66.2002631413  TIP3      1417            0.0000000000
     21626      1554  TIP3      OH2             4.2687286206       48.3995476124       72.0871383632  TIP3      1418            0.0000000000
     21627      1554  TIP3      H1              4.2536101880       48.1194110301       71.1592113066  TIP3      1418            0.0000000000
     21628      1554  TIP3      H2              4.3362999665       47.5447242925       72.5572223520  TIP3      1418            0.0000000000
     21629      1555  TIP3      OH2            10.8845915933       50.2665370654       65.7449263723  TIP3      1419            0.0000000000
     21630      1555  TIP3      H1             10.5166764665       51.1378694317       65.4840276302  TIP3      1419            0.0000000000
     21631      1555  TIP3      H2             10.0892046589       49.7275307121       65.9140345359  TIP3      1419            0.0000000000
     21632      1556  TIP3      OH2             1.7604678356       46.3760243622       77.2020561712  TIP3      1420            0.0000000000
     21633      1556  TIP3      H1              1.7870682561       45.9874525317       78.1033125967  TIP3      1420            0.0000000000
     21634      1556  TIP3      H2              0.8319742853       46.1956010195       76.9612283929  TIP3      1420            0.0000000000
     21635      1557  TIP3      OH2             7.3834775337       46.3210220025       79.0809081766  TIP3      1421            0.0000000000
     21636      1557  TIP3      H1              6.9899689482       45.8729794103       78.3086227736  TIP3      1421            0.0000000000
     21637      1557  TIP3      H2              8.2973939603       45.9970293794       79.0335715398  TIP3      1421            0.0000000000
     21638      1558  TIP3      OH2            12.8130201070       51.6372999889       77.2501962223  TIP3      1422            0.0000000000
     21639      1558  TIP3      H1             11.8487747277       51.7144440782       77.1767953513  TIP3      1422            0.0000000000
     21640      1558  TIP3      H2             12.9317170350       52.0401711935       78.1295177908  TIP3      1422            0.0000000000
     21641      1559  TIP3      OH2            18.5574411066       49.8873930362       78.4960117589  TIP3      1423            0.0000000000
     21642      1559  TIP3      H1             17.5924332636       49.7658366273       78.3909463765  TIP3      1423            0.0000000000
     21643      1559  TIP3      H2             18.9364046402       49.6313453364       77.6190385342  TIP3      1423            0.0000000000
     21644      1560  TIP3      OH2            16.5649653516       52.1336451641       66.1896160605  TIP3      1424            0.0000000000
     21645      1560  TIP3      H1             15.9638008823       51.8818962406       66.9133329811  TIP3      1424            0.0000000000
     21646      1560  TIP3      H2             17.3943865807       51.7032147301       66.4316444625  TIP3      1424            0.0000000000
     21647      1561  TIP3      OH2            14.3345511711       47.0717055048       73.5748779013  TIP3      1425            0.0000000000
     21648      1561  TIP3      H1             13.4421947083       47.0072593950       73.9543544881  TIP3      1425            0.0000000000
     21649      1561  TIP3      H2             14.3778582339       46.2483254260       73.0479651210  TIP3      1425            0.0000000000
     21650      1562  TIP3      OH2             6.6017899006       51.7466678617       69.7047588497  TIP3      1426            0.0000000000
     21651      1562  TIP3      H1              6.9275029681       52.5813548720       69.3205836458  TIP3      1426            0.0000000000
     21652      1562  TIP3      H2              5.6665626702       51.8375583937       69.4539914448  TIP3      1426            0.0000000000
     21653      1563  TIP3      OH2             2.1150812034       46.7375986002       64.8779106173  TIP3      1427            0.0000000000
     21654      1563  TIP3      H1              3.0554974821       46.7378797610       65.0732047843  TIP3      1427            0.0000000000
     21655      1563  TIP3      H2              2.0660132593       46.3407882608       63.9913261954  TIP3      1427            0.0000000000
     21656      1564  TIP3      OH2             7.3078574932       49.2488339020       68.8259437583  TIP3      1428            0.0000000000
     21657      1564  TIP3      H1              7.1452038549       50.2050915528       69.0102159243  TIP3      1428            0.0000000000
     21658      1564  TIP3      H2              6.6052933326       48.8386198141       69.3793302492  TIP3      1428            0.0000000000
     21659      1565  TIP3      OH2             8.1658017934       53.6641278268       75.7706178308  TIP3      1429            0.0000000000
     21660      1565  TIP3      H1              8.7295932788       54.3711812091       75.4202524384  TIP3      1429            0.0000000000
     21661      1565  TIP3      H2              8.8054326297       53.2060569632       76.3416963226  TIP3      1429            0.0000000000
     21662      1566  TIP3      OH2             6.3684941455       53.9846507943       68.2808674833  TIP3      1430            0.0000000000
     21663      1566  TIP3      H1              5.4741215014       54.2809023328       68.5538715113  TIP3      1430            0.0000000000
     21664      1566  TIP3      H2              6.8754741308       54.7776152238       68.5627526009  TIP3      1430            0.0000000000
     21665      1567  TIP3      OH2            11.4388543664       49.4708426262       74.9482271210  TIP3      1431            0.0000000000
     21666      1567  TIP3      H1             11.1395608014       49.4267915795       75.8889554057  TIP3      1431            0.0000000000
     21667      1567  TIP3      H2             11.7386359544       48.5617274233       74.7891699677  TIP3      1431            0.0000000000
     21668      1568  TIP3      OH2            14.5135527059       54.0421766924       77.2760859927  TIP3      1432            0.0000000000
     21669      1568  TIP3      H1             13.5865850501       53.7690021548       77.1493787968  TIP3      1432            0.0000000000
     21670      1568  TIP3      H2             14.5752527777       54.8403929728       76.7015523613  TIP3      1432            0.0000000000
     21671      1569  TIP3      OH2            18.8689343209       55.4280118509       64.5985273636  TIP3      1433            0.0000000000
     21672      1569  TIP3      H1             19.1565034239       56.1927530699       64.0586274693  TIP3      1433            0.0000000000
     21673      1569  TIP3      H2             18.0267722246       55.7873120835       64.9411859487  TIP3      1433            0.0000000000
     21674      1570  TIP3      OH2             2.8656636428       41.2941732656       76.8098622092  TIP3      1434            0.0000000000
     21675      1570  TIP3      H1              2.2814155307       41.9322334953       77.2973490339  TIP3      1434            0.0000000000
     21676      1570  TIP3      H2              2.4328594891       40.4880636383       77.1076640741  TIP3      1434            0.0000000000
     21677      1571  TIP3      OH2            14.8575874423       48.9829928810       66.8582095622  TIP3      1435            0.0000000000
     21678      1571  TIP3      H1             14.6228008603       48.1315080581       67.2640756681  TIP3      1435            0.0000000000
     21679      1571  TIP3      H2             15.8032473656       48.8537073487       66.6394395332  TIP3      1435            0.0000000000
     21680      1572  TIP3      OH2             2.2037383972       53.1383217899       74.9846633051  TIP3      1436            0.0000000000
     21681      1572  TIP3      H1              3.0331152443       52.6592709156       75.1150770849  TIP3      1436            0.0000000000
     21682      1572  TIP3      H2              2.2093202451       53.6773002035       75.7849776009  TIP3      1436            0.0000000000
     21683      1573  TIP3      OH2             4.1315443398       48.8076165039       66.0422799210  TIP3      1437            0.0000000000
     21684      1573  TIP3      H1              3.2146487124       49.1255629153       66.1022715875  TIP3      1437            0.0000000000
     21685      1573  TIP3      H2              4.4965785451       49.5128666838       65.4990764879  TIP3      1437            0.0000000000
     21686      1574  TIP3      OH2            11.2813519187       41.4949433346       75.8034345900  TIP3      1438            0.0000000000
     21687      1574  TIP3      H1             12.0188348539       41.7179160002       76.4084743028  TIP3      1438            0.0000000000
     21688      1574  TIP3      H2             11.0691800215       40.5702592302       76.0335312378  TIP3      1438            0.0000000000
     21689      1575  TIP3      OH2            12.9210536893       40.4451649152       67.2297811741  TIP3      1439            0.0000000000
     21690      1575  TIP3      H1             13.2122051775       41.1732691707       66.6604547126  TIP3      1439            0.0000000000
     21691      1575  TIP3      H2             12.9894385608       40.8455220150       68.1230971468  TIP3      1439            0.0000000000
     21692      1576  TIP3      OH2            10.1618290198       52.9503529065       65.0541791419  TIP3      1440            0.0000000000
     21693      1576  TIP3      H1              9.3632477006       53.1226564528       65.5932090887  TIP3      1440            0.0000000000
     21694      1576  TIP3      H2             10.4121963828       53.8644923722       64.8394722909  TIP3      1440            0.0000000000
     21695      1577  TIP3      OH2             9.7887255160       42.2842067301       67.1543897058  TIP3      1441            0.0000000000
     21696      1577  TIP3      H1             10.2666931070       43.1373773077       67.2933560305  TIP3      1441            0.0000000000
     21697      1577  TIP3      H2              9.2640512855       42.2213748982       67.9751166289  TIP3      1441            0.0000000000
     21698      1578  TIP3      OH2            10.3636882967       43.9073495830       76.7564384682  TIP3      1442            0.0000000000
     21699      1578  TIP3      H1             10.2647437751       43.9889179640       77.7176188344  TIP3      1442            0.0000000000
     21700      1578  TIP3      H2             10.5616191352       42.9560754321       76.5964130578  TIP3      1442            0.0000000000
     21701      1579  TIP3      OH2            10.1613482456       39.7490939095       68.2447732383  TIP3      1443            0.0000000000
     21702      1579  TIP3      H1              9.8783160621       39.8439127554       69.1770278694  TIP3      1443            0.0000000000
     21703      1579  TIP3      H2             10.7478241576       40.5272663923       68.2050443958  TIP3      1443            0.0000000000
     21704      1580  TIP3      OH2             7.5275097455       53.8207913374       65.6922701254  TIP3      1444            0.0000000000
     21705      1580  TIP3      H1              7.2670939909       54.4856983927       65.0335372480  TIP3      1444            0.0000000000
     21706      1580  TIP3      H2              7.0105966990       54.0575319947       66.4883508862  TIP3      1444            0.0000000000
     21707      1581  TIP3      OH2            15.9243920788       41.4047675534       77.7115153333  TIP3      1445            0.0000000000
     21708      1581  TIP3      H1             14.9846451009       41.4069063886       77.4668634096  TIP3      1445            0.0000000000
     21709      1581  TIP3      H2             16.3783162152       41.5051892679       76.8541415824  TIP3      1445            0.0000000000
     21710      1582  TIP3      OH2            14.5968794299       44.8597472299       71.8497770352  TIP3      1446            0.0000000000
     21711      1582  TIP3      H1             14.0919640209       44.3426251612       72.5093894971  TIP3      1446            0.0000000000
     21712      1582  TIP3      H2             15.5190876771       44.5912779022       72.0838113374  TIP3      1446            0.0000000000
     21713      1583  TIP3      OH2            15.9894345149       54.9974436659       73.4350666899  TIP3      1447            0.0000000000
     21714      1583  TIP3      H1             15.9663803835       55.6405565162       72.6817671516  TIP3      1447            0.0000000000
     21715      1583  TIP3      H2             16.9575627380       54.8829760458       73.5098295972  TIP3      1447            0.0000000000
     21716      1584  TIP3      OH2             3.1972219826       38.4274963528       72.2318386470  TIP3      1448            0.0000000000
     21717      1584  TIP3      H1              3.1449457050       38.0667590097       71.3246483782  TIP3      1448            0.0000000000
     21718      1584  TIP3      H2              2.7804344075       37.6799462106       72.7328869984  TIP3      1448            0.0000000000
     21719      1585  TIP3      OH2             2.1132941778       52.4227358814       69.0462468809  TIP3      1449            0.0000000000
     21720      1585  TIP3      H1              1.7250435738       52.8878012023       69.8181821374  TIP3      1449            0.0000000000
     21721      1585  TIP3      H2              1.6854981444       52.9110511405       68.3093193366  TIP3      1449            0.0000000000
     21722      1586  TIP3      OH2             1.1166959678       55.0278773504       78.9782469805  TIP3      1450            0.0000000000
     21723      1586  TIP3      H1              1.9194310953       55.2224958971       79.4833828129  TIP3      1450            0.0000000000
     21724      1586  TIP3      H2              0.9863023819       54.0835370441       79.1791904611  TIP3      1450            0.0000000000
     21725      1587  TIP3      OH2             6.3706988697       53.5761495691       81.4922998106  TIP3      1451            0.0000000000
     21726      1587  TIP3      H1              7.2632086519       53.7440033619       81.1571147310  TIP3      1451            0.0000000000
     21727      1587  TIP3      H2              5.9015543341       53.4073744165       80.6557164656  TIP3      1451            0.0000000000
     21728      1588  TIP3      OH2            12.3748676583       52.7855453345       79.8634015642  TIP3      1452            0.0000000000
     21729      1588  TIP3      H1             12.0792934938       51.8898787018       80.1626022581  TIP3      1452            0.0000000000
     21730      1588  TIP3      H2             13.2212504003       52.8461831819       80.3570373762  TIP3      1452            0.0000000000
     21731      1589  TIP3      OH2             1.3325100241       49.6930360742       80.1131496509  TIP3      1453            0.0000000000
     21732      1589  TIP3      H1              1.1569242772       48.9777534724       80.7430833749  TIP3      1453            0.0000000000
     21733      1589  TIP3      H2              0.4818112631       49.7550663165       79.6498563834  TIP3      1453            0.0000000000
     21734      1590  TIP3      OH2             7.9878137549       48.8794506893       79.5201149159  TIP3      1454            0.0000000000
     21735      1590  TIP3      H1              7.5779411405       49.5348841268       78.9073041599  TIP3      1454            0.0000000000
     21736      1590  TIP3      H2              7.6850465344       48.0104647378       79.1676908364  TIP3      1454            0.0000000000
     21737      1591  TIP3      OH2            13.6834438316       48.9081549060       77.6021281640  TIP3      1455            0.0000000000
     21738      1591  TIP3      H1             14.4370263155       49.5375966986       77.6642404746  TIP3      1455            0.0000000000
     21739      1591  TIP3      H2             12.9715131371       49.5586001610       77.5099041375  TIP3      1455            0.0000000000
     21740      1592  TIP3      OH2             2.0114187357       45.5409882671       79.7526664991  TIP3      1456            0.0000000000
     21741      1592  TIP3      H1              2.6480612550       44.9188921276       80.1173629317  TIP3      1456            0.0000000000
     21742      1592  TIP3      H2              2.1376642547       46.3191391654       80.3316479869  TIP3      1456            0.0000000000
     21743      1593  TIP3      OH2             7.0510010724       47.3012994872       65.3396650626  TIP3      1457            0.0000000000
     21744      1593  TIP3      H1              6.4826784680       46.8096629325       65.9680712030  TIP3      1457            0.0000000000
     21745      1593  TIP3      H2              6.9831788526       46.7040745675       64.5804702418  TIP3      1457            0.0000000000
     21746      1594  TIP3      OH2             6.0534009802       45.2135775666       76.9408849443  TIP3      1458            0.0000000000
     21747      1594  TIP3      H1              5.3437058843       45.8885230247       76.8554123135  TIP3      1458            0.0000000000
     21748      1594  TIP3      H2              6.7865332588       45.6600351768       76.4684108251  TIP3      1458            0.0000000000
     21749      1595  TIP3      OH2            11.5069060298       47.9963211490       80.7643844576  TIP3      1459            0.0000000000
     21750      1595  TIP3      H1             11.9855259101       47.4673752787       80.1070197221  TIP3      1459            0.0000000000
     21751      1595  TIP3      H2             11.0527254261       47.3111525953       81.2943383998  TIP3      1459            0.0000000000
     21752      1596  TIP3      OH2             7.2037970611       43.0263580022       78.1066673949  TIP3      1460            0.0000000000
     21753      1596  TIP3      H1              7.0841289878       42.2667338794       77.4940461105  TIP3      1460            0.0000000000
     21754      1596  TIP3      H2              6.8538612239       43.7635882513       77.5633256926  TIP3      1460            0.0000000000
     21755      1597  TIP3      OH2             7.0487671131       40.8138155460       76.1609680268  TIP3      1461            0.0000000000
     21756      1597  TIP3      H1              7.4912592165       41.3064210026       75.4278363841  TIP3      1461            0.0000000000
     21757      1597  TIP3      H2              6.1257848755       40.7289885164       75.8342128809  TIP3      1461            0.0000000000
     21758      1598  TIP3      OH2             8.2997128732       46.6837224566       76.1839647492  TIP3      1462            0.0000000000
     21759      1598  TIP3      H1              9.0700930026       46.8930158710       75.6452311693  TIP3      1462            0.0000000000
     21760      1598  TIP3      H2              7.6916014290       47.3961777770       75.9034747839  TIP3      1462            0.0000000000
     21761      1599  TIP3      OH2            12.5684234445       44.2440538339       81.2170410151  TIP3      1463            0.0000000000
     21762      1599  TIP3      H1             12.7258241498       43.3841751315       81.6714336119  TIP3      1463            0.0000000000
     21763      1599  TIP3      H2             13.4647850273       44.5808871219       81.1002067866  TIP3      1463            0.0000000000
     21764      1600  TIP3      OH2            14.3353781575       47.2788121273       79.7215073569  TIP3      1464            0.0000000000
     21765      1600  TIP3      H1             13.9142077333       47.7840092625       78.9954828642  TIP3      1464            0.0000000000
     21766      1600  TIP3      H2             15.2140850295       47.1048406115       79.3352303136  TIP3      1464            0.0000000000
     21767      1601  TIP3      OH2             5.3341579329       43.2766297018       80.3493588415  TIP3      1465            0.0000000000
     21768      1601  TIP3      H1              4.5388729401       42.8441471563       79.9865284482  TIP3      1465            0.0000000000
     21769      1601  TIP3      H2              5.6671005813       43.7487473042       79.5699512110  TIP3      1465            0.0000000000
     21770      1602  TIP3      OH2             8.0761343439       38.3895295140       76.1514101593  TIP3      1466            0.0000000000
     21771      1602  TIP3      H1              7.8117371942       39.3404713318       76.1619227956  TIP3      1466            0.0000000000
     21772      1602  TIP3      H2              7.2262520262       38.0073177297       75.9049434487  TIP3      1466            0.0000000000
     21773      1603  TIP3      OH2             8.8732825963       42.6192485146       80.3469735881  TIP3      1467            0.0000000000
     21774      1603  TIP3      H1              8.1970381031       42.3155160279       80.9939673024  TIP3      1467            0.0000000000
     21775      1603  TIP3      H2              8.3276806065       42.6214731966       79.5341455272  TIP3      1467            0.0000000000
     21776      1604  TIP3      OH2            11.6099682715       42.0687513500       79.2202904030  TIP3      1468            0.0000000000
     21777      1604  TIP3      H1             10.6610737537       41.9471519910       79.3978121036  TIP3      1468            0.0000000000
     21778      1604  TIP3      H2             11.9769821260       41.4561044525       79.9027280313  TIP3      1468            0.0000000000
     21779      1605  TIP3      OH2            12.6193955315       40.1892556314       80.8512176424  TIP3      1469            0.0000000000
     21780      1605  TIP3      H1             13.0391982680       39.3114298415       80.9407471189  TIP3      1469            0.0000000000
     21781      1605  TIP3      H2             12.8925300858       40.6593372438       81.6716785968  TIP3      1469            0.0000000000
     21782      1606  TIP3      OH2             2.7914488019       41.6117673947       80.0934155739  TIP3      1470            0.0000000000
     21783      1606  TIP3      H1              2.8404195351       40.7175882925       79.7086415266  TIP3      1470            0.0000000000
     21784      1606  TIP3      H2              2.7394553051       41.3882339820       81.0512089534  TIP3      1470            0.0000000000
     21785      1607  TIP3      OH2             7.6100991641       37.6222845212       78.7656773917  TIP3      1471            0.0000000000
     21786      1607  TIP3      H1              8.0422642193       36.7470497013       78.7673536643  TIP3      1471            0.0000000000
     21787      1607  TIP3      H2              7.7793494352       37.9095714984       77.8377787548  TIP3      1471            0.0000000000
     21788      1608  TIP3      OH2             7.8909234600       38.8386148327       81.6307060903  TIP3      1472            0.0000000000
     21789      1608  TIP3      H1              7.8985943427       38.5453720851       80.7004547205  TIP3      1472            0.0000000000
     21790      1608  TIP3      H2              7.4642121653       39.7204611003       81.5393637527  TIP3      1472            0.0000000000
     21791      1609  TIP3      OH2             2.7605401801       51.2103762845       63.7694462078  TIP3      1473            0.0000000000
     21792      1609  TIP3      H1              2.6651633638       52.1819294302       63.7223741652  TIP3      1473            0.0000000000
     21793      1609  TIP3      H2              1.9296071089       50.8974607685       63.4204125423  TIP3      1473            0.0000000000
     21794      1610  TIP3      OH2            66.6270491600       56.2494119767       68.6935958745  TIP3      1474            0.0000000000
     21795      1610  TIP3      H1             65.7096572005       56.4784329630       68.9600272814  TIP3      1474            0.0000000000
     21796      1610  TIP3      H2             66.8563671426       55.5992369948       69.3935427725  TIP3      1474            0.0000000000
     21797      1611  TIP3      OH2             1.0768028993       54.3934269181       70.5739858402  TIP3      1475            0.0000000000
     21798      1611  TIP3      H1              0.5643860670       53.7661356501       71.1207998730  TIP3      1475            0.0000000000
     21799      1611  TIP3      H2              1.6218427151       54.8197263016       71.2780388748  TIP3      1475            0.0000000000
     21800      1612  TIP3      OH2            18.7454107692       55.5127256744       73.2915955299  TIP3      1476            0.0000000000
     21801      1612  TIP3      H1             18.7906878734       55.9423746572       74.1631222685  TIP3      1476            0.0000000000
     21802      1612  TIP3      H2             19.6981061429       55.4502601270       73.0731074884  TIP3      1476            0.0000000000
     21803      1613  TIP3      OH2            18.1150108178       54.4021736739       76.4919402558  TIP3      1477            0.0000000000
     21804      1613  TIP3      H1             17.6992042401       53.7006632750       75.9488635790  TIP3      1477            0.0000000000
     21805      1613  TIP3      H2             18.3857385371       53.8753588254       77.2764413832  TIP3      1477            0.0000000000
     21806      1614  TIP3      OH2            16.7286367106       50.2589606721       81.3117444980  TIP3      1478            0.0000000000
     21807      1614  TIP3      H1             15.8539073687       50.3776745343       81.7493749345  TIP3      1478            0.0000000000
     21808      1614  TIP3      H2             17.1803741206       51.0904796451       81.6046158366  TIP3      1478            0.0000000000
     21809      1615  TIP3      OH2            17.5658796739       48.5941086702       66.2055037777  TIP3      1479            0.0000000000
     21810      1615  TIP3      H1             18.3771505673       49.0935765653       66.4023845193  TIP3      1479            0.0000000000
     21811      1615  TIP3      H2             17.6788595726       47.8679675147       66.8654971933  TIP3      1479            0.0000000000
     21812      1616  TIP3      OH2            18.1646593948       46.9824506466       68.2841290246  TIP3      1480            0.0000000000
     21813      1616  TIP3      H1             17.4846660793       46.4911163808       68.7918488191  TIP3      1480            0.0000000000
     21814      1616  TIP3      H2             18.8193943309       47.1218286930       68.9849136994  TIP3      1480            0.0000000000
     21815      1617  TIP3      OH2            17.8312346847       49.6908092885       73.3332765012  TIP3      1481            0.0000000000
     21816      1617  TIP3      H1             18.4203603373       48.9671979486       73.0181726597  TIP3      1481            0.0000000000
     21817      1617  TIP3      H2             18.0916616987       50.4460444740       72.7682574382  TIP3      1481            0.0000000000
     21818      1618  TIP3      OH2            16.6651312294       52.3156858821       75.6733457500  TIP3      1482            0.0000000000
     21819      1618  TIP3      H1             16.4056528903       52.1691678891       76.6027329474  TIP3      1482            0.0000000000
     21820      1618  TIP3      H2             16.5438782552       51.4404960018       75.2756885387  TIP3      1482            0.0000000000
     21821      1619  TIP3      OH2            16.0954593416       45.5049774379       69.4914770308  TIP3      1483            0.0000000000
     21822      1619  TIP3      H1             15.8705395792       44.6190794566       69.1571229781  TIP3      1483            0.0000000000
     21823      1619  TIP3      H2             15.7851729205       45.4567837174       70.4123643525  TIP3      1483            0.0000000000
     21824      1620  TIP3      OH2             1.0020417421       47.1983505281       73.5037304521  TIP3      1484            0.0000000000
     21825      1620  TIP3      H1              1.0002791605       47.1146980898       72.5240879792  TIP3      1484            0.0000000000
     21826      1620  TIP3      H2              1.9576999386       46.9982882779       73.6534258054  TIP3      1484            0.0000000000
     21827      1621  TIP3      OH2            17.1539826840       47.1777194407       78.7934764013  TIP3      1485            0.0000000000
     21828      1621  TIP3      H1             17.3547226274       46.2213458765       78.9358910792  TIP3      1485            0.0000000000
     21829      1621  TIP3      H2             17.9679240418       47.4702821965       78.3521786804  TIP3      1485            0.0000000000
     21830      1622  TIP3      OH2            18.3412643938       44.7392840839       79.5965082192  TIP3      1486            0.0000000000
     21831      1622  TIP3      H1             17.6051704813       44.1000957103       79.5257262637  TIP3      1486            0.0000000000
     21832      1622  TIP3      H2             19.1332010051       44.1406908913       79.5560565177  TIP3      1486            0.0000000000
     21833      1623  TIP3      OH2            15.7002101801       43.1092662648       67.7650400390  TIP3      1487            0.0000000000
     21834      1623  TIP3      H1             15.5800106605       42.2102346219       68.1255072879  TIP3      1487            0.0000000000
     21835      1623  TIP3      H2             16.4505147587       42.9507667461       67.1770878830  TIP3      1487            0.0000000000
     21836      1624  TIP3      OH2            16.8861242011       43.8278169691       72.6372749221  TIP3      1488            0.0000000000
     21837      1624  TIP3      H1             17.8490830865       43.9528096432       72.8091818108  TIP3      1488            0.0000000000
     21838      1624  TIP3      H2             16.6148606599       43.5073895327       73.5196093571  TIP3      1488            0.0000000000
     21839      1625  TIP3      OH2            16.4364452158       44.2230683593       75.3416002693  TIP3      1489            0.0000000000
     21840      1625  TIP3      H1             15.5753444132       44.4417985125       75.7380341198  TIP3      1489            0.0000000000
     21841      1625  TIP3      H2             16.8846617746       45.0952400308       75.2602180383  TIP3      1489            0.0000000000
     21842      1626  TIP3      OH2             1.2557296015       42.8083375098       78.2158988649  TIP3      1490            0.0000000000
     21843      1626  TIP3      H1              1.8345719568       42.6541076445       78.9935902546  TIP3      1490            0.0000000000
     21844      1626  TIP3      H2              0.3935133188       42.6850141180       78.6762861706  TIP3      1490            0.0000000000
     21845      1627  TIP3      OH2            18.5545316668       38.6327336305       80.8644697746  TIP3      1491            0.0000000000
     21846      1627  TIP3      H1             18.9984706129       37.9515893965       80.3125213997  TIP3      1491            0.0000000000
     21847      1627  TIP3      H2             18.4973717202       39.3802155401       80.2213610643  TIP3      1491            0.0000000000
     21848      1628  TIP3      OH2            16.1253355628       40.2819269832       67.8703922330  TIP3      1492            0.0000000000
     21849      1628  TIP3      H1             16.5407424266       39.9915271119       68.7123850552  TIP3      1492            0.0000000000
     21850      1628  TIP3      H2             15.6800339606       39.4552989637       67.5893775647  TIP3      1492            0.0000000000
     21851      1629  TIP3      OH2             2.2262693052       40.9442748270       72.5422337535  TIP3      1493            0.0000000000
     21852      1629  TIP3      H1              2.5990188571       40.0318806445       72.4887002393  TIP3      1493            0.0000000000
     21853      1629  TIP3      H2              3.0047481453       41.4752243042       72.8194812791  TIP3      1493            0.0000000000
     21854      1630  TIP3      OH2             0.4625853428       44.1156237581       73.1368994737  TIP3      1494            0.0000000000
     21855      1630  TIP3      H1              1.1216320514       43.4877879370       72.8116166252  TIP3      1494            0.0000000000
     21856      1630  TIP3      H2              0.9959683441       44.9007500804       73.3187582417  TIP3      1494            0.0000000000
     21857      1631  TIP3      OH2            17.9866295132       40.7254794982       79.3395386730  TIP3      1495            0.0000000000
     21858      1631  TIP3      H1             17.2587921767       41.0078068957       79.9296961669  TIP3      1495            0.0000000000
     21859      1631  TIP3      H2             17.4779036975       40.3824356659       78.5776816047  TIP3      1495            0.0000000000
     21860      1632  TIP3      OH2             0.7096516910       40.0588573719       67.0200554216  TIP3      1496            0.0000000000
     21861      1632  TIP3      H1              1.3796729936       40.0404671433       67.7156540209  TIP3      1496            0.0000000000
     21862      1632  TIP3      H2              1.0536295460       40.7755036352       66.4376771969  TIP3      1496            0.0000000000
     21863      1633  TIP3      OH2            15.3147907139       54.9630725567       69.5717254677  TIP3      1497            0.0000000000
     21864      1633  TIP3      H1             16.0221604373       54.8459048030       68.9030090171  TIP3      1497            0.0000000000
     21865      1633  TIP3      H2             15.6592843848       55.6642154794       70.1524995156  TIP3      1497            0.0000000000
     21866      1634  TIP3      OH2             0.5956277211       38.4995956377       75.2440599768  TIP3      1498            0.0000000000
     21867      1634  TIP3      H1             -0.3035190288       38.2122814440       75.5189964522  TIP3      1498            0.0000000000
     21868      1634  TIP3      H2              0.3840268699       39.2303259438       74.6471507357  TIP3      1498            0.0000000000
     21869      1635  TIP3      OH2             2.6682459625       52.1512008567       79.6562846946  TIP3      1499            0.0000000000
     21870      1635  TIP3      H1              2.5997240395       51.5895860447       78.8608377298  TIP3      1499            0.0000000000
     21871      1635  TIP3      H2              2.3771160644       51.5365755663       80.3361513772  TIP3      1499            0.0000000000
     21872      1636  TIP3      OH2             5.4706258705       53.6534123937       76.1761520433  TIP3      1500            0.0000000000
     21873      1636  TIP3      H1              5.4865573239       54.5834359841       75.8812694797  TIP3      1500            0.0000000000
     21874      1636  TIP3      H2              6.4349054989       53.4828431547       76.2389296681  TIP3      1500            0.0000000000
     21875      1637  TIP3      OH2             9.5881115689       54.6404749998       78.9934812659  TIP3      1501            0.0000000000
     21876      1637  TIP3      H1              9.8226390146       54.4633059446       79.9306444618  TIP3      1501            0.0000000000
     21877      1637  TIP3      H2             10.3872901426       55.1184409351       78.6891093229  TIP3      1501            0.0000000000
     21878      1638  TIP3      OH2            11.8159662024       56.1370520484       78.3886140364  TIP3      1502            0.0000000000
     21879      1638  TIP3      H1             12.2927749022       55.3120831828       78.5307907345  TIP3      1502            0.0000000000
     21880      1638  TIP3      H2             12.2403074727       56.6879020668       79.0724963240  TIP3      1502            0.0000000000
     21881      1639  TIP3      OH2            17.1586422898       38.0858300237       77.5438326128  TIP3      1503            0.0000000000
     21882      1639  TIP3      H1             16.4474974268       38.5035367793       77.0401890487  TIP3      1503            0.0000000000
     21883      1639  TIP3      H2             17.1914814616       37.1974749319       77.1412341295  TIP3      1503            0.0000000000
     21884      1640  TIP3      OH2             3.0079128461       56.7383907111       75.7929106604  TIP3      1504            0.0000000000
     21885      1640  TIP3      H1              2.1894067555       57.1836515844       75.4784416727  TIP3      1504            0.0000000000
     21886      1640  TIP3      H2              2.9575372165       56.8933913733       76.7462980450  TIP3      1504            0.0000000000
     21887      1641  TIP3      OH2             5.5470195087       56.2691620979       74.8729620302  TIP3      1505            0.0000000000
     21888      1641  TIP3      H1              4.6452442116       56.4739683615       75.2092346387  TIP3      1505            0.0000000000
     21889      1641  TIP3      H2              5.5970531735       56.8945777434       74.1167857467  TIP3      1505            0.0000000000
     21890      1642  TIP3      OH2             9.9143581417       55.6290734955       73.9410124818  TIP3      1506            0.0000000000
     21891      1642  TIP3      H1              9.2399205068       56.1922992463       73.5260184195  TIP3      1506            0.0000000000
     21892      1642  TIP3      H2             10.1444779183       56.1944229761       74.7108100228  TIP3      1506            0.0000000000
     21893      1643  TIP3      OH2            12.1764974552       54.6888820060       75.7425852455  TIP3      1507            0.0000000000
     21894      1643  TIP3      H1             11.7028362159       54.8791051497       74.9047362534  TIP3      1507            0.0000000000
     21895      1643  TIP3      H2             12.6831056731       55.5178880361       75.8464631651  TIP3      1507            0.0000000000
     21896      1644  TIP3      OH2            14.6627169596       56.0787369488       75.4285074879  TIP3      1508            0.0000000000
     21897      1644  TIP3      H1             14.7006733031       57.0505090090       75.3377918948  TIP3      1508            0.0000000000
     21898      1644  TIP3      H2             15.1156072571       55.8552494366       74.5793812418  TIP3      1508            0.0000000000
     21899      1645  TIP3      OH2             2.5380335378       54.9552511052       72.7473141034  TIP3      1509            0.0000000000
     21900      1645  TIP3      H1              2.1963435238       54.5442519097       73.5580047134  TIP3      1509            0.0000000000
     21901      1645  TIP3      H2              3.3480350602       54.4195525819       72.5892409835  TIP3      1509            0.0000000000
     21902      1646  TIP3      OH2             4.6068159660       53.5957315800       71.7758014648  TIP3      1510            0.0000000000
     21903      1646  TIP3      H1              4.4486356233       52.6686514973       72.0339685883  TIP3      1510            0.0000000000
     21904      1646  TIP3      H2              5.5045518417       53.7493438768       72.1493924505  TIP3      1510            0.0000000000
     21905      1647  TIP3      OH2             7.0337843857       53.7611795808       72.7789003720  TIP3      1511            0.0000000000
     21906      1647  TIP3      H1              7.2647452485       52.8134729086       72.6544790098  TIP3      1511            0.0000000000
     21907      1647  TIP3      H2              7.2669243460       53.8838598673       73.7180162692  TIP3      1511            0.0000000000
     21908      1648  TIP3      OH2             9.7474750370       39.7132226408       70.9130945200  TIP3      1512            0.0000000000
     21909      1648  TIP3      H1              8.9783638458       39.4323267722       71.4588034437  TIP3      1512            0.0000000000
     21910      1648  TIP3      H2             10.4678182036       39.2747148578       71.3863750969  TIP3      1512            0.0000000000
     21911      1649  TIP3      OH2            15.6047321373       38.1011611374       71.7485851477  TIP3      1513            0.0000000000
     21912      1649  TIP3      H1             16.2298196987       38.6206118362       71.1848568046  TIP3      1513            0.0000000000
     21913      1649  TIP3      H2             14.7504162261       38.1434777564       71.2594685114  TIP3      1513            0.0000000000
     21914      1650  TIP3      OH2            17.3263570040       39.3045473002       70.1180182485  TIP3      1514            0.0000000000
     21915      1650  TIP3      H1             17.8300265336       38.6029379737       69.6565595855  TIP3      1514            0.0000000000
     21916      1650  TIP3      H2             18.0562646026       39.9303477729       70.3558232622  TIP3      1514            0.0000000000
     21917      1651  TIP3      OH2             3.3469856059       38.1966777707       69.2913575522  TIP3      1515            0.0000000000
     21918      1651  TIP3      H1              2.4839523844       38.0474660220       68.8706417359  TIP3      1515            0.0000000000
     21919      1651  TIP3      H2              3.7941436606       37.3261737626       69.1671102702  TIP3      1515            0.0000000000
     21920      1652  TIP3      OH2             0.9045553404       37.8108488860       65.0555168843  TIP3      1516            0.0000000000
     21921      1652  TIP3      H1              1.6951297584       38.3054111350       64.7611092321  TIP3      1516            0.0000000000
     21922      1652  TIP3      H2              0.8364319293       38.1425495464       65.9713196950  TIP3      1516            0.0000000000
     21923      1653  TIP3      OH2             7.7176753825       38.0684921070       69.0359587578  TIP3      1517            0.0000000000
     21924      1653  TIP3      H1              8.1986480309       38.8686921923       68.7961125259  TIP3      1517            0.0000000000
     21925      1653  TIP3      H2              7.8183249145       38.0372442881       69.9999304943  TIP3      1517            0.0000000000
     21926      1654  TIP3      OH2            13.1781336897       38.3461172589       70.5548490469  TIP3      1518            0.0000000000
     21927      1654  TIP3      H1             12.6957476033       38.3879623691       69.7239466822  TIP3      1518            0.0000000000
     21928      1654  TIP3      H2             12.7464799234       37.5669330245       70.9804403493  TIP3      1518            0.0000000000
     21929      1655  TIP3      OH2            14.4488129646       38.2690113943       66.5723096860  TIP3      1519            0.0000000000
     21930      1655  TIP3      H1             13.8262839960       38.9950518809       66.7848051321  TIP3      1519            0.0000000000
     21931      1655  TIP3      H2             13.9397085240       37.4851740992       66.8861545030  TIP3      1519            0.0000000000
     21932      1656  TIP3      OH2             1.3495541523       54.1944035063       66.9165779937  TIP3      1520            0.0000000000
     21933      1656  TIP3      H1              1.3520318092       54.8744451196       66.2198316943  TIP3      1520            0.0000000000
     21934      1656  TIP3      H2              0.8804466846       54.6798363955       67.6208297039  TIP3      1520            0.0000000000
     21935      1657  TIP3      OH2             3.2627221837       39.6165111563       64.3177376621  TIP3      1521            0.0000000000
     21936      1657  TIP3      H1              3.2139031824       39.7583620991       63.3656850804  TIP3      1521            0.0000000000
     21937      1657  TIP3      H2              3.4084934307       40.5094427681       64.6381563379  TIP3      1521            0.0000000000
     21938      1658  TIP3      OH2             8.3787395325       40.5847367121       65.6846496096  TIP3      1522            0.0000000000
     21939      1658  TIP3      H1              7.4676140437       40.8821966949       65.8223499397  TIP3      1522            0.0000000000
     21940      1658  TIP3      H2              8.8586484108       41.2982375567       66.1708621331  TIP3      1522            0.0000000000
     21941      1659  TIP3      OH2            10.9950729560       56.1522717771       64.4295500070  TIP3      1523            0.0000000000
     21942      1659  TIP3      H1             11.7557368673       56.4375661217       63.8803555057  TIP3      1523            0.0000000000
     21943      1659  TIP3      H2             10.2524113138       56.5123940470       63.9176705320  TIP3      1523            0.0000000000
     21944      1660  TIP3      OH2            16.9528056160       54.4994974282       67.4963333948  TIP3      1524            0.0000000000
     21945      1660  TIP3      H1             16.6926498177       53.7085640489       66.9864212215  TIP3      1524            0.0000000000
     21946      1660  TIP3      H2             16.8587042349       55.1788739840       66.7917234811  TIP3      1524            0.0000000000
     21947      1661  TIP3      OH2             2.7325754182       38.9126548754       78.8144441017  TIP3      1525            0.0000000000
     21948      1661  TIP3      H1              2.3378695241       38.0384506093       78.8686753349  TIP3      1525            0.0000000000
     21949      1661  TIP3      H2              3.5164465545       38.8273879687       79.4097029496  TIP3      1525            0.0000000000
     21950      1662  TIP3      OH2             4.7405095816       38.5138655170       80.6389401843  TIP3      1526            0.0000000000
     21951      1662  TIP3      H1              5.5390765935       38.0739707549       80.2898945715  TIP3      1526            0.0000000000
     21952      1662  TIP3      H2              4.4036228070       37.8156522096       81.2458559185  TIP3      1526            0.0000000000
     21953      1663  TIP3      OH2             2.8950914359       54.1643383526       63.5357436987  TIP3      1527            0.0000000000
     21954      1663  TIP3      H1              2.6558014737       54.8850364873       64.1471175593  TIP3      1527            0.0000000000
     21955      1663  TIP3      H2              3.4824312440       54.6358395486       62.9174090768  TIP3      1527            0.0000000000
     21956      1664  TIP3      OH2            13.1797910846       37.5752244005       81.0598674085  TIP3      1528            0.0000000000
     21957      1664  TIP3      H1             13.2990852840       37.1368317803       81.9250331424  TIP3      1528            0.0000000000
     21958      1664  TIP3      H2             14.0884831300       37.5131503473       80.7031590884  TIP3      1528            0.0000000000
     21959      1665  TIP3      OH2            16.3558845713       53.9527833503       79.3539610754  TIP3      1529            0.0000000000
     21960      1665  TIP3      H1             15.6016329691       53.8305538341       78.7429019027  TIP3      1529            0.0000000000
     21961      1665  TIP3      H2             16.3197401603       54.9121209843       79.5441146579  TIP3      1529            0.0000000000
     21962      1666  TIP3      OH2            31.1997277195       47.4524181697       69.4777762571  TIP3      1530            0.0000000000
     21963      1666  TIP3      H1             31.1587775668       48.3517547128       69.8540219536  TIP3      1530            0.0000000000
     21964      1666  TIP3      H2             30.4169626131       47.4777619603       68.9013199731  TIP3      1530            0.0000000000
     21965      1667  TIP3      OH2            29.5740563757       46.5551324288       73.1291353457  TIP3      1531            0.0000000000
     21966      1667  TIP3      H1             29.9298111747       46.2442013706       73.9823337079  TIP3      1531            0.0000000000
     21967      1667  TIP3      H2             29.1134098869       45.7633885179       72.8013929728  TIP3      1531            0.0000000000
     21968      1668  TIP3      OH2            21.8998736313       46.6951527555       74.1922476896  TIP3      1532            0.0000000000
     21969      1668  TIP3      H1             21.8979300024       45.7522588576       74.4137095492  TIP3      1532            0.0000000000
     21970      1668  TIP3      H2             22.6637769631       47.0047028984       74.7154574343  TIP3      1532            0.0000000000
     21971      1669  TIP3      OH2            33.0058748937       49.6038047152       71.1798121065  TIP3      1533            0.0000000000
     21972      1669  TIP3      H1             32.8666247120       48.8655445459       71.7866509933  TIP3      1533            0.0000000000
     21973      1669  TIP3      H2             33.3817205139       50.2740481960       71.7678319183  TIP3      1533            0.0000000000
     21974      1670  TIP3      OH2            23.0985063113       51.2460622077       72.5808882880  TIP3      1534            0.0000000000
     21975      1670  TIP3      H1             22.7690799062       50.3530524166       72.3283842593  TIP3      1534            0.0000000000
     21976      1670  TIP3      H2             24.0556127081       51.0632488553       72.5580196901  TIP3      1534            0.0000000000
     21977      1671  TIP3      OH2            19.5775554887       44.1099017182       68.1260291402  TIP3      1535            0.0000000000
     21978      1671  TIP3      H1             19.4619040326       44.8927124394       68.6877511305  TIP3      1535            0.0000000000
     21979      1671  TIP3      H2             18.6833490046       43.7829556241       68.0160113447  TIP3      1535            0.0000000000
     21980      1672  TIP3      OH2            20.1944427907       46.5126139941       70.4605533245  TIP3      1536            0.0000000000
     21981      1672  TIP3      H1             20.7711092238       45.7685064705       70.7550862007  TIP3      1536            0.0000000000
     21982      1672  TIP3      H2             20.8321321166       47.2225228240       70.2877906923  TIP3      1536            0.0000000000
     21983      1673  TIP3      OH2            30.4388872290       55.0167720889       71.0013146040  TIP3      1537            0.0000000000
     21984      1673  TIP3      H1             31.1695914530       54.4337633880       70.6893370062  TIP3      1537            0.0000000000
     21985      1673  TIP3      H2             30.1614761937       54.5310354596       71.7899549689  TIP3      1537            0.0000000000
     21986      1674  TIP3      OH2            27.7648439030       49.3496665912       73.8131708150  TIP3      1538            0.0000000000
     21987      1674  TIP3      H1             28.0817523275       48.8468705175       73.0531366520  TIP3      1538            0.0000000000
     21988      1674  TIP3      H2             28.6238695805       49.5464634026       74.2430117348  TIP3      1538            0.0000000000
     21989      1675  TIP3      OH2            36.7088020858       40.7819802778       73.7975711806  TIP3      1539            0.0000000000
     21990      1675  TIP3      H1             36.7820901656       41.4223826224       74.5352444107  TIP3      1539            0.0000000000
     21991      1675  TIP3      H2             37.5557073410       40.9482720011       73.3563313675  TIP3      1539            0.0000000000
     21992      1676  TIP3      OH2            31.5215914390       43.6987450199       73.8435814571  TIP3      1540            0.0000000000
     21993      1676  TIP3      H1             31.7505071594       42.7745820828       74.0672520495  TIP3      1540            0.0000000000
     21994      1676  TIP3      H2             31.3970905918       43.5968155103       72.8849948933  TIP3      1540            0.0000000000
     21995      1677  TIP3      OH2            24.2738569999       41.4206586537       70.6885951463  TIP3      1541            0.0000000000
     21996      1677  TIP3      H1             24.0469188929       42.2457319562       70.2121414703  TIP3      1541            0.0000000000
     21997      1677  TIP3      H2             24.0156272333       40.7684113790       69.9991419133  TIP3      1541            0.0000000000
     21998      1678  TIP3      OH2            32.1175307294       41.7187660579       69.1101788535  TIP3      1542            0.0000000000
     21999      1678  TIP3      H1             32.7176830020       41.4319206617       69.8262792957  TIP3      1542            0.0000000000
     22000      1678  TIP3      H2             32.5400448547       42.5226652042       68.7928420533  TIP3      1542            0.0000000000
     22001      1679  TIP3      OH2            21.3637421611       44.3339427256       71.5604818130  TIP3      1543            0.0000000000
     22002      1679  TIP3      H1             21.8098503747       43.6822523599       72.1372624614  TIP3      1543            0.0000000000
     22003      1679  TIP3      H2             21.4658569275       43.8790469235       70.6953358594  TIP3      1543            0.0000000000
     22004      1680  TIP3      OH2            26.2547222641       46.4118162117       70.9266648604  TIP3      1544            0.0000000000
     22005      1680  TIP3      H1             27.2203771470       46.3563065886       70.9532226145  TIP3      1544            0.0000000000
     22006      1680  TIP3      H2             26.0552942506       45.7811207693       70.2169431894  TIP3      1544            0.0000000000
     22007      1681  TIP3      OH2            36.8104082355       42.2372065621       76.1236544606  TIP3      1545            0.0000000000
     22008      1681  TIP3      H1             36.3660085819       42.9731244831       75.6472985271  TIP3      1545            0.0000000000
     22009      1681  TIP3      H2             37.1162824021       42.7024695796       76.9160962193  TIP3      1545            0.0000000000
     22010      1682  TIP3      OH2            23.6021567951       40.7833551453       74.7769390141  TIP3      1546            0.0000000000
     22011      1682  TIP3      H1             23.1696194136       41.2312897252       74.0233653077  TIP3      1546            0.0000000000
     22012      1682  TIP3      H2             23.0523560635       41.1032257267       75.5250031934  TIP3      1546            0.0000000000
     22013      1683  TIP3      OH2            30.2587477587       49.9782941884       68.3831629292  TIP3      1547            0.0000000000
     22014      1683  TIP3      H1             29.5486077158       49.9243045478       67.7232656178  TIP3      1547            0.0000000000
     22015      1683  TIP3      H2             30.0988297482       50.8648127327       68.7730062587  TIP3      1547            0.0000000000
     22016      1684  TIP3      OH2            25.4795074344       48.2582200023       74.8143218012  TIP3      1548            0.0000000000
     22017      1684  TIP3      H1             24.8959431928       49.0083715389       75.0734500363  TIP3      1548            0.0000000000
     22018      1684  TIP3      H2             26.2670573996       48.7480232790       74.4760975017  TIP3      1548            0.0000000000
     22019      1685  TIP3      OH2            34.0621233629       41.6826120902       71.3802394659  TIP3      1549            0.0000000000
     22020      1685  TIP3      H1             34.4171314956       40.8975849510       71.8226590284  TIP3      1549            0.0000000000
     22021      1685  TIP3      H2             34.7095508003       42.3529456334       71.6909112387  TIP3      1549            0.0000000000
     22022      1686  TIP3      OH2            22.9621840096       42.5440248779       72.7977052748  TIP3      1550            0.0000000000
     22023      1686  TIP3      H1             23.5027262859       43.2180074886       73.2742472894  TIP3      1550            0.0000000000
     22024      1686  TIP3      H2             23.5470976829       42.2226048290       72.0815799685  TIP3      1550            0.0000000000
     22025      1687  TIP3      OH2            24.2220294511       50.4912560154       75.6496129967  TIP3      1551            0.0000000000
     22026      1687  TIP3      H1             23.9802919100       51.3150372220       75.1984939424  TIP3      1551            0.0000000000
     22027      1687  TIP3      H2             23.4159200584       50.3308379901       76.2080668149  TIP3      1551            0.0000000000
     22028      1688  TIP3      OH2            20.1805861925       49.8799259432       66.5748797729  TIP3      1552            0.0000000000
     22029      1688  TIP3      H1             20.9100706884       50.2462528485       66.0484264757  TIP3      1552            0.0000000000
     22030      1688  TIP3      H2             20.1232320484       50.5505859118       67.2759846026  TIP3      1552            0.0000000000
     22031      1689  TIP3      OH2            34.1241493962       51.7411696953       73.2436116508  TIP3      1553            0.0000000000
     22032      1689  TIP3      H1             33.1890221680       51.8582560824       73.5381473698  TIP3      1553            0.0000000000
     22033      1689  TIP3      H2             34.2130966182       52.5962204627       72.7954225495  TIP3      1553            0.0000000000
     22034      1690  TIP3      OH2            34.0822147267       39.9618798521       74.3773253134  TIP3      1554            0.0000000000
     22035      1690  TIP3      H1             33.4218208564       40.6515656591       74.2089987318  TIP3      1554            0.0000000000
     22036      1690  TIP3      H2             34.9357800461       40.4041659393       74.1842028219  TIP3      1554            0.0000000000
     22037      1691  TIP3      OH2            26.8302637005       38.0157672977       72.4070837371  TIP3      1555            0.0000000000
     22038      1691  TIP3      H1             26.6458890437       37.0806029548       72.2628475987  TIP3      1555            0.0000000000
     22039      1691  TIP3      H2             25.9115750891       38.3626258656       72.5443591269  TIP3      1555            0.0000000000
     22040      1692  TIP3      OH2            32.4100592719       53.3627562534       69.8786954301  TIP3      1556            0.0000000000
     22041      1692  TIP3      H1             32.8328664214       52.6659471116       69.3376803176  TIP3      1556            0.0000000000
     22042      1692  TIP3      H2             33.0894741387       54.0724624288       69.7704555022  TIP3      1556            0.0000000000
     22043      1693  TIP3      OH2            33.3780297633       51.0796012461       68.3891263982  TIP3      1557            0.0000000000
     22044      1693  TIP3      H1             33.2255759306       50.3646103178       67.7462745042  TIP3      1557            0.0000000000
     22045      1693  TIP3      H2             33.2787541597       50.5793698591       69.2248852960  TIP3      1557            0.0000000000
     22046      1694  TIP3      OH2            34.9462344267       50.0481882532       76.9642877014  TIP3      1558            0.0000000000
     22047      1694  TIP3      H1             34.8388768927       49.2918612344       76.3498204111  TIP3      1558            0.0000000000
     22048      1694  TIP3      H2             35.1818753451       50.7832935151       76.3535298911  TIP3      1558            0.0000000000
     22049      1695  TIP3      OH2            29.4856301679       46.9041546359       67.1365056438  TIP3      1559            0.0000000000
     22050      1695  TIP3      H1             28.9668263713       47.7362396811       67.1038087455  TIP3      1559            0.0000000000
     22051      1695  TIP3      H2             30.2824270224       47.1600132449       66.6408986809  TIP3      1559            0.0000000000
     22052      1696  TIP3      OH2            29.7565131879       45.2616008558       64.0834508697  TIP3      1560            0.0000000000
     22053      1696  TIP3      H1             29.9792553888       46.0987263271       64.5162002291  TIP3      1560            0.0000000000
     22054      1696  TIP3      H2             30.0136941554       44.6470698451       64.7769302551  TIP3      1560            0.0000000000
     22055      1697  TIP3      OH2            37.0050283195       46.4665859416       75.0897110845  TIP3      1561            0.0000000000
     22056      1697  TIP3      H1             36.1471638065       46.9354667910       75.1119791561  TIP3      1561            0.0000000000
     22057      1697  TIP3      H2             37.4688137138       46.9277992211       74.3635668628  TIP3      1561            0.0000000000
     22058      1698  TIP3      OH2            33.2470841136       46.7232505018       68.0079053945  TIP3      1562            0.0000000000
     22059      1698  TIP3      H1             32.6231932407       47.0536586186       68.7007362437  TIP3      1562            0.0000000000
     22060      1698  TIP3      H2             33.9196025554       46.2427099760       68.5380876056  TIP3      1562            0.0000000000
     22061      1699  TIP3      OH2            33.4494461275       45.4490651936       76.8118337941  TIP3      1563            0.0000000000
     22062      1699  TIP3      H1             33.7809367082       46.3470763730       77.0124678055  TIP3      1563            0.0000000000
     22063      1699  TIP3      H2             32.6273880752       45.6627474201       76.3031855061  TIP3      1563            0.0000000000
     22064      1700  TIP3      OH2            24.0857875108       47.3590261442       69.4832036446  TIP3      1564            0.0000000000
     22065      1700  TIP3      H1             24.4348596349       47.9559870878       68.8014100397  TIP3      1564            0.0000000000
     22066      1700  TIP3      H2             24.8828493730       47.1578762122       69.9984910012  TIP3      1564            0.0000000000
     22067      1701  TIP3      OH2            25.9698501723       50.9505665039       72.4703227369  TIP3      1565            0.0000000000
     22068      1701  TIP3      H1             26.1977155987       50.8337285594       71.5406163303  TIP3      1565            0.0000000000
     22069      1701  TIP3      H2             26.6830914583       50.4967116504       72.9689683079  TIP3      1565            0.0000000000
     22070      1702  TIP3      OH2            25.0456388686       46.1216846231       73.3267881127  TIP3      1566            0.0000000000
     22071      1702  TIP3      H1             25.3558747229       46.3528437531       72.4297032786  TIP3      1566            0.0000000000
     22072      1702  TIP3      H2             25.3061256491       46.9343110830       73.8329615251  TIP3      1566            0.0000000000
     22073      1703  TIP3      OH2            31.5986573944       52.1653650372       74.0144715880  TIP3      1567            0.0000000000
     22074      1703  TIP3      H1             31.0358692421       52.8140700294       74.4838354218  TIP3      1567            0.0000000000
     22075      1703  TIP3      H2             31.3211168000       51.3199042204       74.4199448426  TIP3      1567            0.0000000000
     22076      1704  TIP3      OH2            25.9444792494       50.6457632273       77.8225627751  TIP3      1568            0.0000000000
     22077      1704  TIP3      H1             25.2628279637       51.1877527489       78.2852303059  TIP3      1568            0.0000000000
     22078      1704  TIP3      H2             25.5126473581       50.5397962010       76.9503118120  TIP3      1568            0.0000000000
     22079      1705  TIP3      OH2            31.8229030486       46.7835114212       65.8450200052  TIP3      1569            0.0000000000
     22080      1705  TIP3      H1             32.1969989407       46.5727631207       66.7385903380  TIP3      1569            0.0000000000
     22081      1705  TIP3      H2             32.5063039178       47.4063282229       65.5490420668  TIP3      1569            0.0000000000
     22082      1706  TIP3      OH2            23.2977113596       46.8278043050       76.8581502868  TIP3      1570            0.0000000000
     22083      1706  TIP3      H1             23.6673634222       47.5249218986       77.4166634359  TIP3      1570            0.0000000000
     22084      1706  TIP3      H2             22.4033035848       46.7823450743       77.2394569060  TIP3      1570            0.0000000000
     22085      1707  TIP3      OH2            29.9396679552       52.5596902516       69.2355832946  TIP3      1571            0.0000000000
     22086      1707  TIP3      H1             30.8634480828       52.6874589663       69.5445705337  TIP3      1571            0.0000000000
     22087      1707  TIP3      H2             29.5478698357       53.4075992550       69.4701650144  TIP3      1571            0.0000000000
     22088      1708  TIP3      OH2            24.2328322300       52.4112511530       78.9690213660  TIP3      1572            0.0000000000
     22089      1708  TIP3      H1             24.1283914512       52.8498264744       78.0933267362  TIP3      1572            0.0000000000
     22090      1708  TIP3      H2             23.3070747578       52.1322690926       79.1229720362  TIP3      1572            0.0000000000
     22091      1709  TIP3      OH2            35.4659621650       37.8010313388       66.0360589686  TIP3      1573            0.0000000000
     22092      1709  TIP3      H1             34.5073271843       37.6673850289       65.8405880863  TIP3      1573            0.0000000000
     22093      1709  TIP3      H2             35.6793142778       38.5859177485       65.4989523988  TIP3      1573            0.0000000000
     22094      1710  TIP3      OH2            23.5035843458       46.8020801339       66.5303073320  TIP3      1574            0.0000000000
     22095      1710  TIP3      H1             22.9665314224       47.3791078360       67.0921837806  TIP3      1574            0.0000000000
     22096      1710  TIP3      H2             23.4376319531       45.9549411847       66.9876241537  TIP3      1574            0.0000000000
     22097      1711  TIP3      OH2            19.5633921572       49.2605065231       76.1209108484  TIP3      1575            0.0000000000
     22098      1711  TIP3      H1             19.0814448440       49.3255376754       75.2822081149  TIP3      1575            0.0000000000
     22099      1711  TIP3      H2             20.0226365354       48.4067063724       76.0138060218  TIP3      1575            0.0000000000
     22100      1712  TIP3      OH2            19.2911598961       51.9319573081       72.8769810375  TIP3      1576            0.0000000000
     22101      1712  TIP3      H1             19.8465644973       51.2253139204       73.2347137765  TIP3      1576            0.0000000000
     22102      1712  TIP3      H2             19.5717110366       52.6249338467       73.4918418243  TIP3      1576            0.0000000000
     22103      1713  TIP3      OH2            37.6904397776       52.4371790240       78.5835933782  TIP3      1577            0.0000000000
     22104      1713  TIP3      H1             37.4046284601       51.6982673554       79.1400045738  TIP3      1577            0.0000000000
     22105      1713  TIP3      H2             36.9587085953       53.0608033792       78.7906598519  TIP3      1577            0.0000000000
     22106      1714  TIP3      OH2            28.5889605404       51.9199220210       77.7812438416  TIP3      1578            0.0000000000
     22107      1714  TIP3      H1             28.6826692726       52.6302495917       78.4415609153  TIP3      1578            0.0000000000
     22108      1714  TIP3      H2             27.6735004259       51.6150161342       77.9174059750  TIP3      1578            0.0000000000
     22109      1715  TIP3      OH2            29.3638989150       55.6786972337       66.7695337639  TIP3      1579            0.0000000000
     22110      1715  TIP3      H1             28.9072687238       56.0514962646       66.0063238239  TIP3      1579            0.0000000000
     22111      1715  TIP3      H2             29.3476648125       56.4434401066       67.3863851586  TIP3      1579            0.0000000000
     22112      1716  TIP3      OH2            22.6193344090       54.4444405187       69.4174284077  TIP3      1580            0.0000000000
     22113      1716  TIP3      H1             22.8907876649       54.1072750125       70.3005268662  TIP3      1580            0.0000000000
     22114      1716  TIP3      H2             21.7688175258       53.9908664604       69.2693043791  TIP3      1580            0.0000000000
     22115      1717  TIP3      OH2            32.6331448148       54.2895120008       64.0059396403  TIP3      1581            0.0000000000
     22116      1717  TIP3      H1             32.5650758449       53.6018153758       64.6772776121  TIP3      1581            0.0000000000
     22117      1717  TIP3      H2             32.5776062186       55.0751216233       64.5632171002  TIP3      1581            0.0000000000
     22118      1718  TIP3      OH2            31.7446679340       54.4918183914       66.8791770902  TIP3      1582            0.0000000000
     22119      1718  TIP3      H1             30.7982863035       54.7662203998       66.8558266835  TIP3      1582            0.0000000000
     22120      1718  TIP3      H2             31.7359467467       53.8011075935       67.5539795098  TIP3      1582            0.0000000000
     22121      1719  TIP3      OH2            34.5065294074       43.5093337332       79.0454848107  TIP3      1583            0.0000000000
     22122      1719  TIP3      H1             34.1644480834       43.9486549831       78.2489735587  TIP3      1583            0.0000000000
     22123      1719  TIP3      H2             34.0111111161       42.6708901266       79.0850292376  TIP3      1583            0.0000000000
     22124      1720  TIP3      OH2            22.2729198575       50.0616512501       77.3430686424  TIP3      1584            0.0000000000
     22125      1720  TIP3      H1             22.3845259041       49.6723815420       78.2370648023  TIP3      1584            0.0000000000
     22126      1720  TIP3      H2             21.3212498510       49.9751034335       77.1984633396  TIP3      1584            0.0000000000
     22127      1721  TIP3      OH2            24.3856545997       38.9235969013       72.9998811008  TIP3      1585            0.0000000000
     22128      1721  TIP3      H1             23.4422989773       38.9574704417       72.7476892862  TIP3      1585            0.0000000000
     22129      1721  TIP3      H2             24.3738510894       39.4753656663       73.8128497050  TIP3      1585            0.0000000000
     22130      1722  TIP3      OH2            29.3193253482       38.4769178202       76.2654117928  TIP3      1586            0.0000000000
     22131      1722  TIP3      H1             29.6685696904       38.2191514342       77.1470961131  TIP3      1586            0.0000000000
     22132      1722  TIP3      H2             28.3303125000       38.4214180635       76.3627039840  TIP3      1586            0.0000000000
     22133      1723  TIP3      OH2            32.6323169568       42.7897959360       76.9240890746  TIP3      1587            0.0000000000
     22134      1723  TIP3      H1             32.0111172195       42.6340723810       77.6740184335  TIP3      1587            0.0000000000
     22135      1723  TIP3      H2             32.8396456989       43.7337475930       77.0323528946  TIP3      1587            0.0000000000
     22136      1724  TIP3      OH2            24.9676450679       43.6958632963       74.1420428887  TIP3      1588            0.0000000000
     22137      1724  TIP3      H1             24.3765268615       43.7815330205       74.9281518818  TIP3      1588            0.0000000000
     22138      1724  TIP3      H2             24.9700396722       44.6439327088       73.8585471181  TIP3      1588            0.0000000000
     22139      1725  TIP3      OH2            24.6113774292       43.9327065894       69.7033759108  TIP3      1589            0.0000000000
     22140      1725  TIP3      H1             23.6668257150       44.0838226602       69.4989311674  TIP3      1589            0.0000000000
     22141      1725  TIP3      H2             24.9330933643       43.6423005094       68.8194157536  TIP3      1589            0.0000000000
     22142      1726  TIP3      OH2            30.1438332910       44.1959295725       67.5963552235  TIP3      1590            0.0000000000
     22143      1726  TIP3      H1             29.9678014919       45.1648737659       67.5547256169  TIP3      1590            0.0000000000
     22144      1726  TIP3      H2             30.9956287474       44.1009359880       67.1324309537  TIP3      1590            0.0000000000
     22145      1727  TIP3      OH2            29.1624373397       44.9393735631       79.2213426165  TIP3      1591            0.0000000000
     22146      1727  TIP3      H1             28.7926807310       44.0663094852       79.4471303036  TIP3      1591            0.0000000000
     22147      1727  TIP3      H2             29.9396692186       44.9431873409       79.8005445643  TIP3      1591            0.0000000000
     22148      1728  TIP3      OH2            31.0380729513       43.9394541700       71.0787620680  TIP3      1592            0.0000000000
     22149      1728  TIP3      H1             31.0364025358       44.7317247499       70.5135028187  TIP3      1592            0.0000000000
     22150      1728  TIP3      H2             31.2497114739       43.2496217588       70.4281633410  TIP3      1592            0.0000000000
     22151      1729  TIP3      OH2            22.4292344611       43.9013566760       75.3879745054  TIP3      1593            0.0000000000
     22152      1729  TIP3      H1             22.6136900340       44.4683396682       76.1579500707  TIP3      1593            0.0000000000
     22153      1729  TIP3      H2             22.0707387301       43.0897720082       75.8192061478  TIP3      1593            0.0000000000
     22154      1730  TIP3      OH2            19.1563479358       41.1913621196       70.4603057089  TIP3      1594            0.0000000000
     22155      1730  TIP3      H1             19.9061377946       41.1532721743       71.0868096239  TIP3      1594            0.0000000000
     22156      1730  TIP3      H2             19.5610697813       41.2236145810       69.5729218396  TIP3      1594            0.0000000000
     22157      1731  TIP3      OH2            30.9391737514       45.8382991747       75.3761602452  TIP3      1595            0.0000000000
     22158      1731  TIP3      H1             31.1630573102       45.0793451788       74.7798207158  TIP3      1595            0.0000000000
     22159      1731  TIP3      H2             30.2251200783       45.4196467830       75.9103786704  TIP3      1595            0.0000000000
     22160      1732  TIP3      OH2            27.6590561148       41.3767119858       70.3939944966  TIP3      1596            0.0000000000
     22161      1732  TIP3      H1             27.2453473692       40.7158239780       69.7954684666  TIP3      1596            0.0000000000
     22162      1732  TIP3      H2             28.2761841432       40.7905178740       70.8979799470  TIP3      1596            0.0000000000
     22163      1733  TIP3      OH2            21.9269619687       43.0051838717       69.2670541746  TIP3      1597            0.0000000000
     22164      1733  TIP3      H1             21.1052830896       43.2422405797       68.7581084225  TIP3      1597            0.0000000000
     22165      1733  TIP3      H2             22.1327536820       42.1164310190       68.9044330854  TIP3      1597            0.0000000000
     22166      1734  TIP3      OH2            25.3366830531       42.9194493399       67.2918269420  TIP3      1598            0.0000000000
     22167      1734  TIP3      H1             26.2392058181       42.6458328245       67.5686577271  TIP3      1598            0.0000000000
     22168      1734  TIP3      H2             25.5882668433       43.5941708178       66.6519033388  TIP3      1598            0.0000000000
     22169      1735  TIP3      OH2            31.5947856551       40.9010052609       73.6045502097  TIP3      1599            0.0000000000
     22170      1735  TIP3      H1             31.0726178872       40.2673261443       74.1120991765  TIP3      1599            0.0000000000
     22171      1735  TIP3      H2             31.7553085604       40.3912345850       72.7937819176  TIP3      1599            0.0000000000
     22172      1736  TIP3      OH2            34.6629968308       56.3710118149       79.9369761191  TIP3      1600            0.0000000000
     22173      1736  TIP3      H1             34.8441051775       56.6731800600       79.0243003356  TIP3      1600            0.0000000000
     22174      1736  TIP3      H2             35.3971647921       56.8080981172       80.4088623860  TIP3      1600            0.0000000000
     22175      1737  TIP3      OH2            22.7103133854       48.4194901049       79.4715208636  TIP3      1601            0.0000000000
     22176      1737  TIP3      H1             23.2866256430       48.9380539413       80.0778124564  TIP3      1601            0.0000000000
     22177      1737  TIP3      H2             21.8345287359       48.4657727210       79.9202944772  TIP3      1601            0.0000000000
     22178      1738  TIP3      OH2            28.5403190945       44.2161465321       72.1931299245  TIP3      1602            0.0000000000
     22179      1738  TIP3      H1             29.3539940471       44.0057995015       71.6941418611  TIP3      1602            0.0000000000
     22180      1738  TIP3      H2             28.6651407843       43.7248414599       73.0159207274  TIP3      1602            0.0000000000
     22181      1739  TIP3      OH2            23.0090423642       40.3019420801       68.5181926244  TIP3      1603            0.0000000000
     22182      1739  TIP3      H1             22.4663660953       39.5846189595       68.9129827239  TIP3      1603            0.0000000000
     22183      1739  TIP3      H2             23.5321009293       39.8088888361       67.8823296827  TIP3      1603            0.0000000000
     22184      1740  TIP3      OH2            27.3827183176       42.5047029952       74.2987433933  TIP3      1604            0.0000000000
     22185      1740  TIP3      H1             26.6545083435       43.1477513779       74.4111121772  TIP3      1604            0.0000000000
     22186      1740  TIP3      H2             28.0037560351       42.8275617586       74.9693740111  TIP3      1604            0.0000000000
     22187      1741  TIP3      OH2            27.8367778370       49.0637074574       66.8111857577  TIP3      1605            0.0000000000
     22188      1741  TIP3      H1             27.1736894132       48.6419745459       66.2322334764  TIP3      1605            0.0000000000
     22189      1741  TIP3      H2             27.2642895992       49.2935136585       67.5741753281  TIP3      1605            0.0000000000
     22190      1742  TIP3      OH2            34.9288295921       48.1009249069       75.2054285029  TIP3      1606            0.0000000000
     22191      1742  TIP3      H1             35.3011520379       48.5931988005       74.4415953093  TIP3      1606            0.0000000000
     22192      1742  TIP3      H2             34.0390530177       47.9016301106       74.8621713672  TIP3      1606            0.0000000000
     22193      1743  TIP3      OH2            29.0264127084       49.1940729743       77.3342597191  TIP3      1607            0.0000000000
     22194      1743  TIP3      H1             28.6313594802       48.9353995440       78.1811310567  TIP3      1607            0.0000000000
     22195      1743  TIP3      H2             28.9439543481       50.1659948462       77.3864475910  TIP3      1607            0.0000000000
     22196      1744  TIP3      OH2            32.4808373262       43.6822715916       65.9094983830  TIP3      1608            0.0000000000
     22197      1744  TIP3      H1             33.2027881421       43.3146803281       66.4632507386  TIP3      1608            0.0000000000
     22198      1744  TIP3      H2             32.8119178794       44.5735991532       65.7621815710  TIP3      1608            0.0000000000
     22199      1745  TIP3      OH2            22.6791729701       48.4869291139       71.8714223381  TIP3      1609            0.0000000000
     22200      1745  TIP3      H1             23.1581784687       48.1564948499       71.0909336711  TIP3      1609            0.0000000000
     22201      1745  TIP3      H2             22.7350804737       47.7568758603       72.5180075434  TIP3      1609            0.0000000000
     22202      1746  TIP3      OH2            19.7449391792       46.5079705439       77.3714033416  TIP3      1610            0.0000000000
     22203      1746  TIP3      H1             19.7413893771       45.8071894523       78.0490144844  TIP3      1610            0.0000000000
     22204      1746  TIP3      H2             19.1083056167       46.1936274441       76.7006329253  TIP3      1610            0.0000000000
     22205      1747  TIP3      OH2            26.7705707427       46.1542747166       78.9665121836  TIP3      1611            0.0000000000
     22206      1747  TIP3      H1             26.4314084231       45.3563321284       78.5325308443  TIP3      1611            0.0000000000
     22207      1747  TIP3      H2             27.7214662812       45.9063577803       79.0547944235  TIP3      1611            0.0000000000
     22208      1748  TIP3      OH2            31.8301090741       51.6319819204       77.5953790136  TIP3      1612            0.0000000000
     22209      1748  TIP3      H1             31.0258615732       51.7949750879       77.0855457691  TIP3      1612            0.0000000000
     22210      1748  TIP3      H2             31.5288695006       51.9034010008       78.4931402508  TIP3      1612            0.0000000000
     22211      1749  TIP3      OH2            36.8860802434       43.5552024634       65.8396085399  TIP3      1613            0.0000000000
     22212      1749  TIP3      H1             37.3776934891       43.0756581438       65.1255345715  TIP3      1613            0.0000000000
     22213      1749  TIP3      H2             36.9497822329       44.4589435394       65.4660735754  TIP3      1613            0.0000000000
     22214      1750  TIP3      OH2            37.4521357903       49.5735804789       78.5382559108  TIP3      1614            0.0000000000
     22215      1750  TIP3      H1             36.5275845483       49.7349601362       78.2584655091  TIP3      1614            0.0000000000
     22216      1750  TIP3      H2             37.8889986010       49.5482347439       77.6640047787  TIP3      1614            0.0000000000
     22217      1751  TIP3      OH2            35.6375029435       51.8003355045       66.1064719944  TIP3      1615            0.0000000000
     22218      1751  TIP3      H1             35.2527568304       51.5494905010       66.9653708702  TIP3      1615            0.0000000000
     22219      1751  TIP3      H2             36.2881045012       51.0964561848       65.9701855690  TIP3      1615            0.0000000000
     22220      1752  TIP3      OH2            32.9193693368       47.4049527011       73.1233744302  TIP3      1616            0.0000000000
     22221      1752  TIP3      H1             32.0118785247       47.0623814431       73.0965172334  TIP3      1616            0.0000000000
     22222      1752  TIP3      H2             33.4203295149       46.7208690935       72.6331343240  TIP3      1616            0.0000000000
     22223      1753  TIP3      OH2            25.0609946053       52.0115734718       69.1341876566  TIP3      1617            0.0000000000
     22224      1753  TIP3      H1             25.3516134200       52.9315745598       69.0552733719  TIP3      1617            0.0000000000
     22225      1753  TIP3      H2             24.1047310957       52.1085052221       69.0072826471  TIP3      1617            0.0000000000
     22226      1754  TIP3      OH2            26.3595434751       49.6138026740       69.0330968224  TIP3      1618            0.0000000000
     22227      1754  TIP3      H1             25.8870228694       50.4839849070       69.0200887263  TIP3      1618            0.0000000000
     22228      1754  TIP3      H2             26.4551029928       49.3943866966       69.9606542394  TIP3      1618            0.0000000000
     22229      1755  TIP3      OH2            27.0290923278       53.5246563496       75.7458145375  TIP3      1619            0.0000000000
     22230      1755  TIP3      H1             27.6724850963       54.1957459554       75.4792864241  TIP3      1619            0.0000000000
     22231      1755  TIP3      H2             27.5492890274       53.0831318215       76.4442956549  TIP3      1619            0.0000000000
     22232      1756  TIP3      OH2            24.9852883975       55.0057583358       68.3028017686  TIP3      1620            0.0000000000
     22233      1756  TIP3      H1             24.0763155410       54.8118627864       68.6377646953  TIP3      1620            0.0000000000
     22234      1756  TIP3      H2             25.1626729179       55.8613655151       68.7429888299  TIP3      1620            0.0000000000
     22235      1757  TIP3      OH2            30.3259563912       49.6286734298       74.9966044077  TIP3      1621            0.0000000000
     22236      1757  TIP3      H1             29.9909354600       49.2870519156       75.8610874777  TIP3      1621            0.0000000000
     22237      1757  TIP3      H2             30.9135856504       48.9129461693       74.7067331544  TIP3      1621            0.0000000000
     22238      1758  TIP3      OH2            33.5574445521       54.0061355584       77.4499431392  TIP3      1622            0.0000000000
     22239      1758  TIP3      H1             32.7498555516       53.4761384698       77.2958695494  TIP3      1622            0.0000000000
     22240      1758  TIP3      H2             33.5517813363       54.6198731370       76.6838847567  TIP3      1622            0.0000000000
     22241      1759  TIP3      OH2            21.8550363352       41.6598795359       76.9318082143  TIP3      1623            0.0000000000
     22242      1759  TIP3      H1             21.0362981236       41.9557157044       77.3792449090  TIP3      1623            0.0000000000
     22243      1759  TIP3      H2             22.0054423782       40.8149780593       77.4007908603  TIP3      1623            0.0000000000
     22244      1760  TIP3      OH2            33.7112409716       48.8456162920       66.3992795972  TIP3      1624            0.0000000000
     22245      1760  TIP3      H1             33.5739171180       48.0863294555       66.9994808644  TIP3      1624            0.0000000000
     22246      1760  TIP3      H2             34.6946084302       48.8027467170       66.3326907711  TIP3      1624            0.0000000000
     22247      1761  TIP3      OH2            21.0247809804       52.8759917519       75.1363154622  TIP3      1625            0.0000000000
     22248      1761  TIP3      H1             21.8348947412       52.4109884586       75.3956050387  TIP3      1625            0.0000000000
     22249      1761  TIP3      H2             20.8928008866       53.5525524933       75.8216413446  TIP3      1625            0.0000000000
     22250      1762  TIP3      OH2            29.9625345679       41.2261556020       76.4369722545  TIP3      1626            0.0000000000
     22251      1762  TIP3      H1             30.9076435118       41.3409840334       76.2615137694  TIP3      1626            0.0000000000
     22252      1762  TIP3      H2             29.8104191879       40.2829200995       76.2198308497  TIP3      1626            0.0000000000
     22253      1763  TIP3      OH2            27.9408907409       42.6982039666       67.8220129286  TIP3      1627            0.0000000000
     22254      1763  TIP3      H1             28.7414228520       43.2701886316       67.6866674224  TIP3      1627            0.0000000000
     22255      1763  TIP3      H2             28.1293280104       42.2739809835       68.6796599228  TIP3      1627            0.0000000000
     22256      1764  TIP3      OH2            29.3876436932       43.9061479483       76.5535863090  TIP3      1628            0.0000000000
     22257      1764  TIP3      H1             29.3331849810       44.1920904035       77.4826941608  TIP3      1628            0.0000000000
     22258      1764  TIP3      H2             29.7080406024       42.9790872298       76.5930972758  TIP3      1628            0.0000000000
     22259      1765  TIP3      OH2            29.2761109229       39.5376267062       68.5119858556  TIP3      1629            0.0000000000
     22260      1765  TIP3      H1             29.2187217211       39.4869308714       69.4912052103  TIP3      1629            0.0000000000
     22261      1765  TIP3      H2             29.9943870719       40.1895540763       68.4026787867  TIP3      1629            0.0000000000
     22262      1766  TIP3      OH2            25.7363145900       54.0842990184       65.8116368329  TIP3      1630            0.0000000000
     22263      1766  TIP3      H1             25.4549892924       54.8398273945       65.2873751508  TIP3      1630            0.0000000000
     22264      1766  TIP3      H2             25.5063362688       54.3766294729       66.7233814456  TIP3      1630            0.0000000000
     22265      1767  TIP3      OH2            24.6625651201       41.0158078466       65.3851300894  TIP3      1631            0.0000000000
     22266      1767  TIP3      H1             24.4872023982       41.5766593367       66.1694731856  TIP3      1631            0.0000000000
     22267      1767  TIP3      H2             25.3058290059       40.3883192898       65.7490178387  TIP3      1631            0.0000000000
     22268      1768  TIP3      OH2            34.6975476109       40.8018365303       77.3297490078  TIP3      1632            0.0000000000
     22269      1768  TIP3      H1             33.8813728754       41.2980935259       77.1299993450  TIP3      1632            0.0000000000
     22270      1768  TIP3      H2             35.3219660093       41.2032333136       76.6923333275  TIP3      1632            0.0000000000
     22271      1769  TIP3      OH2            33.8033534238       45.1792022905       71.5447720855  TIP3      1633            0.0000000000
     22272      1769  TIP3      H1             33.0580206471       44.5851811065       71.7195411321  TIP3      1633            0.0000000000
     22273      1769  TIP3      H2             34.5134803365       44.7137864452       72.0337181459  TIP3      1633            0.0000000000
     22274      1770  TIP3      OH2            22.6666664759       51.1180805484       64.5541256533  TIP3      1634            0.0000000000
     22275      1770  TIP3      H1             23.3702705165       51.7271575671       64.8010270037  TIP3      1634            0.0000000000
     22276      1770  TIP3      H2             22.4981859101       51.3903323788       63.6361023384  TIP3      1634            0.0000000000
     22277      1771  TIP3      OH2            34.4812566195       54.6706839777       73.1781596370  TIP3      1635            0.0000000000
     22278      1771  TIP3      H1             34.4542791161       55.4832304412       72.6209088797  TIP3      1635            0.0000000000
     22279      1771  TIP3      H2             35.4209701302       54.4385877628       73.0498990619  TIP3      1635            0.0000000000
     22280      1772  TIP3      OH2            21.7359559312       38.4770566904       72.6017169114  TIP3      1636            0.0000000000
     22281      1772  TIP3      H1             21.7216087465       38.3405641634       71.6307211203  TIP3      1636            0.0000000000
     22282      1772  TIP3      H2             21.4091716652       37.6064068574       72.9135362177  TIP3      1636            0.0000000000
     22283      1773  TIP3      OH2            20.6540826447       52.5070653521       68.4528862682  TIP3      1637            0.0000000000
     22284      1773  TIP3      H1             19.9539949514       53.0012277019       68.9106309139  TIP3      1637            0.0000000000
     22285      1773  TIP3      H2             20.7145790556       53.0684928085       67.6436293727  TIP3      1637            0.0000000000
     22286      1774  TIP3      OH2            19.8864794006       55.5272666918       79.4866926857  TIP3      1638            0.0000000000
     22287      1774  TIP3      H1             20.5094520857       55.1294202773       80.1332403962  TIP3      1638            0.0000000000
     22288      1774  TIP3      H2             19.3351934359       54.7631628755       79.2709369188  TIP3      1638            0.0000000000
     22289      1775  TIP3      OH2            25.1803949941       53.5175264704       81.4522288257  TIP3      1639            0.0000000000
     22290      1775  TIP3      H1             26.1230223276       53.3968487460       81.2861236482  TIP3      1639            0.0000000000
     22291      1775  TIP3      H2             24.8122474214       53.1059159701       80.6416634607  TIP3      1639            0.0000000000
     22292      1776  TIP3      OH2            31.1994036499       52.8709268430       79.9757589769  TIP3      1640            0.0000000000
     22293      1776  TIP3      H1             31.1157471586       51.9677298175       80.3621310144  TIP3      1640            0.0000000000
     22294      1776  TIP3      H2             32.1113288516       53.0709566631       80.2942493919  TIP3      1640            0.0000000000
     22295      1777  TIP3      OH2            20.1366178746       48.6750987622       80.3518768632  TIP3      1641            0.0000000000
     22296      1777  TIP3      H1             19.6840808914       47.8221692977       80.3955865843  TIP3      1641            0.0000000000
     22297      1777  TIP3      H2             19.6257469018       49.1631984140       79.6727685077  TIP3      1641            0.0000000000
     22298      1778  TIP3      OH2            26.9606749133       48.7400282883       79.5160589244  TIP3      1642            0.0000000000
     22299      1778  TIP3      H1             26.6017914677       49.3854590745       78.8661681921  TIP3      1642            0.0000000000
     22300      1778  TIP3      H2             26.9196342033       47.8737025722       79.0433766109  TIP3      1642            0.0000000000
     22301      1779  TIP3      OH2            32.5061276584       48.9274934524       77.6850166083  TIP3      1643            0.0000000000
     22302      1779  TIP3      H1             33.2981976055       49.5140486259       77.7195448359  TIP3      1643            0.0000000000
     22303      1779  TIP3      H2             31.8580814302       49.6355114967       77.5647032181  TIP3      1643            0.0000000000
     22304      1780  TIP3      OH2            21.5411468164       45.5257584814       79.8379019825  TIP3      1644            0.0000000000
     22305      1780  TIP3      H1             22.1786990345       45.0130787713       80.3553185712  TIP3      1644            0.0000000000
     22306      1780  TIP3      H2             21.5784168870       46.3630379195       80.3398040053  TIP3      1644            0.0000000000
     22307      1781  TIP3      OH2            25.8133981085       47.6114878472       65.1166094039  TIP3      1645            0.0000000000
     22308      1781  TIP3      H1             24.9350834242       47.4283272533       65.5068393814  TIP3      1645            0.0000000000
     22309      1781  TIP3      H2             25.6175098282       47.3330623306       64.1998250121  TIP3      1645            0.0000000000
     22310      1782  TIP3      OH2            25.1852323043       44.8200786564       76.7599652795  TIP3      1646            0.0000000000
     22311      1782  TIP3      H1             24.6366966070       45.6102823564       76.9189275637  TIP3      1646            0.0000000000
     22312      1782  TIP3      H2             25.9230817554       45.2509921597       76.2809644572  TIP3      1646            0.0000000000
     22313      1783  TIP3      OH2            30.3463534808       47.8431891412       80.8810533789  TIP3      1647            0.0000000000
     22314      1783  TIP3      H1             30.8684390366       47.3695097937       80.2168092330  TIP3      1647            0.0000000000
     22315      1783  TIP3      H2             29.9856485957       47.1303765537       81.4627592115  TIP3      1647            0.0000000000
     22316      1784  TIP3      OH2            26.4444386337       42.7848175608       78.1124113695  TIP3      1648            0.0000000000
     22317      1784  TIP3      H1             26.2064717075       42.0633080705       77.4945611067  TIP3      1648            0.0000000000
     22318      1784  TIP3      H2             26.0763004000       43.5473253866       77.6257977878  TIP3      1648            0.0000000000
     22319      1785  TIP3      OH2            25.9647471958       40.8842458702       76.1241379202  TIP3      1649            0.0000000000
     22320      1785  TIP3      H1             26.5569007686       41.2990667036       75.4704738364  TIP3      1649            0.0000000000
     22321      1785  TIP3      H2             25.0947436100       40.9470943677       75.6856739817  TIP3      1649            0.0000000000
     22322      1786  TIP3      OH2            27.2615755871       46.5541971111       75.9056774533  TIP3      1650            0.0000000000
     22323      1786  TIP3      H1             28.0681101932       47.0698512193       75.7826207545  TIP3      1650            0.0000000000
     22324      1786  TIP3      H2             26.5882947727       47.2488327988       75.7401198095  TIP3      1650            0.0000000000
     22325      1787  TIP3      OH2            31.2246366314       44.2352337980       81.2167146052  TIP3      1651            0.0000000000
     22326      1787  TIP3      H1             31.4192772321       43.4695190891       80.6442300909  TIP3      1651            0.0000000000
     22327      1787  TIP3      H2             31.9060986595       44.8757970128       80.9765069375  TIP3      1651            0.0000000000
     22328      1788  TIP3      OH2            33.2458014334       47.2562086685       79.6910549931  TIP3      1652            0.0000000000
     22329      1788  TIP3      H1             32.8780358137       47.7207858100       78.9108325822  TIP3      1652            0.0000000000
     22330      1788  TIP3      H2             34.1751629791       47.1253296797       79.4155939702  TIP3      1652            0.0000000000
     22331      1789  TIP3      OH2            24.1768578887       43.5030913989       80.0968413773  TIP3      1653            0.0000000000
     22332      1789  TIP3      H1             23.3037333166       43.0485035962       80.0540877214  TIP3      1653            0.0000000000
     22333      1789  TIP3      H2             24.6161141134       43.1454465262       79.3066416294  TIP3      1653            0.0000000000
     22334      1790  TIP3      OH2            26.7073486126       38.2768807176       76.0077010480  TIP3      1654            0.0000000000
     22335      1790  TIP3      H1             26.3205675761       39.1595250178       76.2259388213  TIP3      1654            0.0000000000
     22336      1790  TIP3      H2             25.9263367068       37.8078016990       75.6935689605  TIP3      1654            0.0000000000
     22337      1791  TIP3      OH2            28.0774628880       42.3211087086       80.2557956254  TIP3      1655            0.0000000000
     22338      1791  TIP3      H1             27.3833704788       42.2883045319       80.9438904541  TIP3      1655            0.0000000000
     22339      1791  TIP3      H2             27.5039384521       42.3441218803       79.4497057355  TIP3      1655            0.0000000000
     22340      1792  TIP3      OH2            31.0469710886       42.1973234202       79.0418083117  TIP3      1656            0.0000000000
     22341      1792  TIP3      H1             30.2277527131       41.8446558184       78.6562797637  TIP3      1656            0.0000000000
     22342      1792  TIP3      H2             31.2159225935       41.4890112040       79.7181237615  TIP3      1656            0.0000000000
     22343      1793  TIP3      OH2            31.6131770890       40.3627511561       80.8543083761  TIP3      1657            0.0000000000
     22344      1793  TIP3      H1             32.1141914449       39.5164166261       80.8914119775  TIP3      1657            0.0000000000
     22345      1793  TIP3      H2             31.9810373939       40.8222218851       81.6500771319  TIP3      1657            0.0000000000
     22346      1794  TIP3      OH2            22.1078283466       41.7162194247       80.2737521512  TIP3      1658            0.0000000000
     22347      1794  TIP3      H1             21.9289731911       40.8870199534       79.8003656515  TIP3      1658            0.0000000000
     22348      1794  TIP3      H2             22.0531353376       41.4157164703       81.2193406241  TIP3      1658            0.0000000000
     22349      1795  TIP3      OH2            26.5911888366       37.8299270972       78.7572873095  TIP3      1659            0.0000000000
     22350      1795  TIP3      H1             27.2849994541       37.1592619361       78.8821728448  TIP3      1659            0.0000000000
     22351      1795  TIP3      H2             26.4556387412       37.6928795306       77.7952149488  TIP3      1659            0.0000000000
     22352      1796  TIP3      OH2            26.7427487841       38.9491122518       81.6716075222  TIP3      1660            0.0000000000
     22353      1796  TIP3      H1             26.5080331985       38.5333242260       80.8179368440  TIP3      1660            0.0000000000
     22354      1796  TIP3      H2             26.2565576673       39.8030519203       81.5719590400  TIP3      1660            0.0000000000
     22355      1797  TIP3      OH2            18.8841594347       55.9832474494       68.9024761892  TIP3      1661            0.0000000000
     22356      1797  TIP3      H1             18.2941393532       55.4344339780       68.3450708408  TIP3      1661            0.0000000000
     22357      1797  TIP3      H2             19.1539267935       55.3511961819       69.5979031958  TIP3      1661            0.0000000000
     22358      1798  TIP3      OH2            19.5755370354       54.1308163414       70.7542411331  TIP3      1662            0.0000000000
     22359      1798  TIP3      H1             19.3257474751       53.2386189305       71.0594904706  TIP3      1662            0.0000000000
     22360      1798  TIP3      H2             19.1821901251       54.6465880178       71.4850438507  TIP3      1662            0.0000000000
     22361      1799  TIP3      OH2            37.2746797755       54.8025092177       73.0809024756  TIP3      1663            0.0000000000
     22362      1799  TIP3      H1             37.3897656972       54.8702337441       74.0534753821  TIP3      1663            0.0000000000
     22363      1799  TIP3      H2             37.3691391351       55.7251584942       72.8086710881  TIP3      1663            0.0000000000
     22364      1800  TIP3      OH2            36.9988665368       54.4934789737       75.8445811079  TIP3      1664            0.0000000000
     22365      1800  TIP3      H1             36.5236774708       53.6528657401       75.6504328590  TIP3      1664            0.0000000000
     22366      1800  TIP3      H2             37.1495425460       54.3994907180       76.7947941929  TIP3      1664            0.0000000000
     22367      1801  TIP3      OH2            35.8513157490       50.1693804812       81.4415055852  TIP3      1665            0.0000000000
     22368      1801  TIP3      H1             35.0122225488       50.3823738179       81.9158801663  TIP3      1665            0.0000000000
     22369      1801  TIP3      H2             36.2934776585       51.0465756961       81.4816627953  TIP3      1665            0.0000000000
     22370      1802  TIP3      OH2            36.3480320545       48.3420155421       66.5199170983  TIP3      1666            0.0000000000
     22371      1802  TIP3      H1             37.3052126602       48.4892284626       66.4346113877  TIP3      1666            0.0000000000
     22372      1802  TIP3      H2             36.3514635185       47.5407182175       67.0844875435  TIP3      1666            0.0000000000
     22373      1803  TIP3      OH2            37.1788897926       46.4311181315       68.4306711198  TIP3      1667            0.0000000000
     22374      1803  TIP3      H1             36.3456678215       46.0023574063       68.7376454470  TIP3      1667            0.0000000000
     22375      1803  TIP3      H2             37.6020512979       46.6557611818       69.2909530654  TIP3      1667            0.0000000000
     22376      1804  TIP3      OH2            36.4044356221       49.2005853075       73.2088528530  TIP3      1668            0.0000000000
     22377      1804  TIP3      H1             37.2022069515       48.6777466378       72.9682292649  TIP3      1668            0.0000000000
     22378      1804  TIP3      H2             36.4327728446       49.9576310945       72.6006477101  TIP3      1668            0.0000000000
     22379      1805  TIP3      OH2            35.3575049131       52.3131230456       75.5718417102  TIP3      1669            0.0000000000
     22380      1805  TIP3      H1             34.6047741010       52.7130039095       76.0452555676  TIP3      1669            0.0000000000
     22381      1805  TIP3      H2             34.9240915980       52.0106582848       74.7397460173  TIP3      1669            0.0000000000
     22382      1806  TIP3      OH2            37.6569033719       45.8484254520       64.5896623226  TIP3      1670            0.0000000000
     22383      1806  TIP3      H1             37.0338669564       45.5953245362       63.8634433962  TIP3      1670            0.0000000000
     22384      1806  TIP3      H2             38.2617050833       46.3920772236       64.0573076109  TIP3      1670            0.0000000000
     22385      1807  TIP3      OH2            35.0097036749       45.0589600048       69.1545275351  TIP3      1671            0.0000000000
     22386      1807  TIP3      H1             34.8220835702       44.1542385363       68.8174682423  TIP3      1671            0.0000000000
     22387      1807  TIP3      H2             34.6674446058       45.0228026868       70.0732832351  TIP3      1671            0.0000000000
     22388      1808  TIP3      OH2            19.6091684326       47.5158167882       73.0992776665  TIP3      1672            0.0000000000
     22389      1808  TIP3      H1             19.6068981048       47.1274342492       72.2021020143  TIP3      1672            0.0000000000
     22390      1808  TIP3      H2             20.5659530866       47.4395534341       73.3390415391  TIP3      1672            0.0000000000
     22391      1809  TIP3      OH2            36.0415538386       47.2150233862       79.0711241489  TIP3      1673            0.0000000000
     22392      1809  TIP3      H1             36.5238678520       46.3649217007       78.9652151157  TIP3      1673            0.0000000000
     22393      1809  TIP3      H2             36.7188778566       47.8870133109       78.8480381135  TIP3      1673            0.0000000000
     22394      1810  TIP3      OH2            36.8945356492       44.5889216745       79.2445922331  TIP3      1674            0.0000000000
     22395      1810  TIP3      H1             36.0533003485       44.0782885790       79.2130171721  TIP3      1674            0.0000000000
     22396      1810  TIP3      H2             37.5747008426       43.8775597737       79.3519817399  TIP3      1674            0.0000000000
     22397      1811  TIP3      OH2            34.4600067728       42.7726302111       67.5437825355  TIP3      1675            0.0000000000
     22398      1811  TIP3      H1             34.4231023576       41.8003237813       67.6437957875  TIP3      1675            0.0000000000
     22399      1811  TIP3      H2             35.2937115285       42.8743745540       67.0419597517  TIP3      1675            0.0000000000
     22400      1812  TIP3      OH2            35.6617617401       43.4974740093       72.6870292877  TIP3      1676            0.0000000000
     22401      1812  TIP3      H1             36.6364766994       43.5832864921       72.8465381198  TIP3      1676            0.0000000000
     22402      1812  TIP3      H2             35.3768956697       43.6741365164       73.6122922408  TIP3      1676            0.0000000000
     22403      1813  TIP3      OH2            35.2285397054       44.1834547265       75.2217798487  TIP3      1677            0.0000000000
     22404      1813  TIP3      H1             34.4299806388       44.5514269527       75.6504644978  TIP3      1677            0.0000000000
     22405      1813  TIP3      H2             35.8734056552       44.9241104691       75.3055474738  TIP3      1677            0.0000000000
     22406      1814  TIP3      OH2            19.9193808224       42.6304570371       79.1323386309  TIP3      1678            0.0000000000
     22407      1814  TIP3      H1             20.7322572227       42.3646448765       79.6249903810  TIP3      1678            0.0000000000
     22408      1814  TIP3      H2             19.3200938845       41.8777206003       79.3321745005  TIP3      1678            0.0000000000
     22409      1815  TIP3      OH2            37.3815903228       38.6960915600       80.8085050743  TIP3      1679            0.0000000000
     22410      1815  TIP3      H1             37.7718696566       37.9313248811       80.3288169756  TIP3      1679            0.0000000000
     22411      1815  TIP3      H2             37.5120089726       39.3958889127       80.1360519391  TIP3      1679            0.0000000000
     22412      1816  TIP3      OH2            34.4867910091       39.6949104160       67.9265122380  TIP3      1680            0.0000000000
     22413      1816  TIP3      H1             35.1043091043       39.6317551558       68.6855563892  TIP3      1680            0.0000000000
     22414      1816  TIP3      H2             34.8653097105       39.0351356470       67.3168818972  TIP3      1680            0.0000000000
     22415      1817  TIP3      OH2            20.7319996537       40.9673667847       72.7432521166  TIP3      1681            0.0000000000
     22416      1817  TIP3      H1             21.1193484544       40.0628750336       72.7469333320  TIP3      1681            0.0000000000
     22417      1817  TIP3      H2             21.5025159020       41.5473245527       72.8329212328  TIP3      1681            0.0000000000
     22418      1818  TIP3      OH2            19.4313384026       43.9669531307       73.3072368987  TIP3      1682            0.0000000000
     22419      1818  TIP3      H1             19.9642138833       43.6666040567       72.5456962535  TIP3      1682            0.0000000000
     22420      1818  TIP3      H2             19.8685639377       44.8058338211       73.5112210247  TIP3      1682            0.0000000000
     22421      1819  TIP3      OH2            36.8413173960       40.8294367805       79.2597331247  TIP3      1683            0.0000000000
     22422      1819  TIP3      H1             36.2329963180       40.8685417513       80.0161146657  TIP3      1683            0.0000000000
     22423      1819  TIP3      H2             36.2309120836       40.5476414036       78.5419501427  TIP3      1683            0.0000000000
     22424      1820  TIP3      OH2            37.5118785112       39.7658652413       63.9017112594  TIP3      1684            0.0000000000
     22425      1820  TIP3      H1             38.3117126700       39.2258235020       63.7878883316  TIP3      1684            0.0000000000
     22426      1820  TIP3      H2             37.8411038984       40.6926901989       63.7800923134  TIP3      1684            0.0000000000
     22427      1821  TIP3      OH2            19.1292549821       40.7710572122       67.6918014006  TIP3      1685            0.0000000000
     22428      1821  TIP3      H1             18.1607806021       40.7812156669       67.6014446292  TIP3      1685            0.0000000000
     22429      1821  TIP3      H2             19.4157391474       40.3710833492       66.8630504117  TIP3      1685            0.0000000000
     22430      1822  TIP3      OH2            34.4237787177       55.1824839865       69.5499228098  TIP3      1686            0.0000000000
     22431      1822  TIP3      H1             34.8200551458       54.8224453729       68.7268751114  TIP3      1686            0.0000000000
     22432      1822  TIP3      H2             35.1777167156       55.6345178536       69.9485861171  TIP3      1686            0.0000000000
     22433      1823  TIP3      OH2            19.4024018155       38.6808592070       75.7077842916  TIP3      1687            0.0000000000
     22434      1823  TIP3      H1             18.6583281484       38.4300564319       76.2868339187  TIP3      1687            0.0000000000
     22435      1823  TIP3      H2             19.1811730789       39.5727978128       75.4058392369  TIP3      1687            0.0000000000
     22436      1824  TIP3      OH2            21.5757515621       51.8635212127       79.5357946731  TIP3      1688            0.0000000000
     22437      1824  TIP3      H1             20.9120141961       52.5012442209       79.2526805383  TIP3      1688            0.0000000000
     22438      1824  TIP3      H2             21.3186426590       51.7217265187       80.4588204562  TIP3      1688            0.0000000000
     22439      1825  TIP3      OH2            24.3535315047       53.4305719031       76.4407130115  TIP3      1689            0.0000000000
     22440      1825  TIP3      H1             24.3072468129       54.3428472734       76.0967909023  TIP3      1689            0.0000000000
     22441      1825  TIP3      H2             25.2846795844       53.2233288422       76.2155731771  TIP3      1689            0.0000000000
     22442      1826  TIP3      OH2            28.6037316610       54.7159574905       78.8064664109  TIP3      1690            0.0000000000
     22443      1826  TIP3      H1             28.7724245323       54.6666425183       79.7650724130  TIP3      1690            0.0000000000
     22444      1826  TIP3      H2             29.5018857867       54.8876945901       78.4656452777  TIP3      1690            0.0000000000
     22445      1827  TIP3      OH2            30.9814252581       56.2729525846       78.3380185848  TIP3      1691            0.0000000000
     22446      1827  TIP3      H1             31.8075537019       55.9244771654       77.9813760185  TIP3      1691            0.0000000000
     22447      1827  TIP3      H2             31.2312501896       56.5432338521       79.2440507119  TIP3      1691            0.0000000000
     22448      1828  TIP3      OH2            36.3148216089       38.0254510949       77.4617184999  TIP3      1692            0.0000000000
     22449      1828  TIP3      H1             35.6496596981       38.5363276536       76.9787655165  TIP3      1692            0.0000000000
     22450      1828  TIP3      H2             36.2911074757       37.1439025641       77.0283956577  TIP3      1692            0.0000000000
     22451      1829  TIP3      OH2            21.7572757189       56.5486189806       75.7956665599  TIP3      1693            0.0000000000
     22452      1829  TIP3      H1             20.9698123556       56.9272844242       75.3629937095  TIP3      1693            0.0000000000
     22453      1829  TIP3      H2             21.6772462923       56.9376115196       76.6815089522  TIP3      1693            0.0000000000
     22454      1830  TIP3      OH2            24.4100369259       56.1293661465       75.0623285745  TIP3      1694            0.0000000000
     22455      1830  TIP3      H1             23.4542217724       56.2411315477       75.2889093476  TIP3      1694            0.0000000000
     22456      1830  TIP3      H2             24.4859709567       56.7802440170       74.3391604983  TIP3      1694            0.0000000000
     22457      1831  TIP3      OH2            29.0452963442       55.7513134564       74.2329679978  TIP3      1695            0.0000000000
     22458      1831  TIP3      H1             28.1666582975       56.1753548068       74.1560260220  TIP3      1695            0.0000000000
     22459      1831  TIP3      H2             29.4409251516       56.3464659272       74.9098272561  TIP3      1695            0.0000000000
     22460      1832  TIP3      OH2            31.0071863979       54.3706697778       75.6200129861  TIP3      1696            0.0000000000
     22461      1832  TIP3      H1             30.3735613211       54.8675260643       75.0632596225  TIP3      1696            0.0000000000
     22462      1832  TIP3      H2             31.8402367294       54.8101488859       75.3799382515  TIP3      1696            0.0000000000
     22463      1833  TIP3      OH2            33.8188604800       55.8258909920       75.4827409487  TIP3      1697            0.0000000000
     22464      1833  TIP3      H1             33.8871283372       56.7139898989       75.0900164302  TIP3      1697            0.0000000000
     22465      1833  TIP3      H2             34.0260371921       55.2776653685       74.6876009378  TIP3      1697            0.0000000000
     22466      1834  TIP3      OH2            21.4110911931       54.8131615583       72.9966458700  TIP3      1698            0.0000000000
     22467      1834  TIP3      H1             21.2053206659       54.0225701526       73.5358162189  TIP3      1698            0.0000000000
     22468      1834  TIP3      H2             22.2785660917       54.5414045545       72.6137051495  TIP3      1698            0.0000000000
     22469      1835  TIP3      OH2            23.6708306191       53.8562282422       71.8069261388  TIP3      1699            0.0000000000
     22470      1835  TIP3      H1             23.5021852962       52.9146877389       72.0202371234  TIP3      1699            0.0000000000
     22471      1835  TIP3      H2             24.5363405077       53.9732197532       72.2525535534  TIP3      1699            0.0000000000
     22472      1836  TIP3      OH2            25.9579115367       53.9931961704       73.1098303495  TIP3      1700            0.0000000000
     22473      1836  TIP3      H1             26.1867132739       53.0510039248       72.9900825836  TIP3      1700            0.0000000000
     22474      1836  TIP3      H2             26.1010327379       54.1217464064       74.0628612831  TIP3      1700            0.0000000000
     22475      1837  TIP3      OH2            29.0062755327       39.2257421597       71.2437128814  TIP3      1701            0.0000000000
     22476      1837  TIP3      H1             28.3482866948       38.6543175558       71.7128651699  TIP3      1701            0.0000000000
     22477      1837  TIP3      H2             29.8500867021       38.7619188506       71.3966283721  TIP3      1701            0.0000000000
     22478      1838  TIP3      OH2            34.7816330753       38.0211453279       71.9031117993  TIP3      1702            0.0000000000
     22479      1838  TIP3      H1             35.3636840460       38.5367316466       71.2934722721  TIP3      1702            0.0000000000
     22480      1838  TIP3      H2             33.9004901790       38.2267900535       71.5386432093  TIP3      1702            0.0000000000
     22481      1839  TIP3      OH2            36.2863829301       39.2568343097       69.9895685461  TIP3      1703            0.0000000000
     22482      1839  TIP3      H1             36.8066130062       38.5341761936       69.5689497050  TIP3      1703            0.0000000000
     22483      1839  TIP3      H2             36.9909240613       39.9383839817       70.0824049095  TIP3      1703            0.0000000000
     22484      1840  TIP3      OH2            21.5216564206       38.3040530000       69.7234541767  TIP3      1704            0.0000000000
     22485      1840  TIP3      H1             20.5903575669       38.2016361803       69.4565867981  TIP3      1704            0.0000000000
     22486      1840  TIP3      H2             21.8739224858       37.4044562245       69.5457651674  TIP3      1704            0.0000000000
     22487      1841  TIP3      OH2            20.4363270933       37.7924069623       65.6879962042  TIP3      1705            0.0000000000
     22488      1841  TIP3      H1             20.7847711605       38.4898623388       65.1274540939  TIP3      1705            0.0000000000
     22489      1841  TIP3      H2             19.5472494301       38.0813162746       65.9390258335  TIP3      1705            0.0000000000
     22490      1842  TIP3      OH2            26.4919277115       39.1108697359       69.2204453833  TIP3      1706            0.0000000000
     22491      1842  TIP3      H1             27.0830714658       38.3496636563       69.1344060720  TIP3      1706            0.0000000000
     22492      1842  TIP3      H2             26.3004896736       39.0904132742       70.1678239743  TIP3      1706            0.0000000000
     22493      1843  TIP3      OH2            32.0563535496       38.4844859354       70.9261446111  TIP3      1707            0.0000000000
     22494      1843  TIP3      H1             32.4239382920       38.4506272351       70.0318984581  TIP3      1707            0.0000000000
     22495      1843  TIP3      H2             31.5469539203       37.6442419489       71.0037284396  TIP3      1707            0.0000000000
     22496      1844  TIP3      OH2            32.8328129445       37.9496571194       66.4580744537  TIP3      1708            0.0000000000
     22497      1844  TIP3      H1             33.0010313031       38.4693202740       67.2616857315  TIP3      1708            0.0000000000
     22498      1844  TIP3      H2             32.4298886166       37.1186404810       66.7929032511  TIP3      1708            0.0000000000
     22499      1845  TIP3      OH2            20.4195758675       54.2900999395       66.4913142774  TIP3      1709            0.0000000000
     22500      1845  TIP3      H1             19.7495642654       54.6742434445       65.8762660092  TIP3      1709            0.0000000000
     22501      1845  TIP3      H2             21.2106212054       54.7298436670       66.1468130983  TIP3      1709            0.0000000000
     22502      1846  TIP3      OH2            27.4868243156       40.0896523470       66.1035422595  TIP3      1710            0.0000000000
     22503      1846  TIP3      H1             27.7111743247       39.7125907956       66.9758433188  TIP3      1710            0.0000000000
     22504      1846  TIP3      H2             27.6622522817       41.0212496474       66.2795629099  TIP3      1710            0.0000000000
     22505      1847  TIP3      OH2            35.6660865936       54.2399453690       67.4154536380  TIP3      1711            0.0000000000
     22506      1847  TIP3      H1             35.6687514979       53.4494170624       66.8301012900  TIP3      1711            0.0000000000
     22507      1847  TIP3      H2             35.5758011823       54.9710793892       66.7491374439  TIP3      1711            0.0000000000
     22508      1848  TIP3      OH2            21.4609103007       39.0231465559       78.7958269054  TIP3      1712            0.0000000000
     22509      1848  TIP3      H1             20.9390472063       38.1987254437       78.8724337713  TIP3      1712            0.0000000000
     22510      1848  TIP3      H2             22.1899270667       38.8443010157       79.4284907818  TIP3      1712            0.0000000000
     22511      1849  TIP3      OH2            23.3891375585       38.3273513312       80.6421643700  TIP3      1713            0.0000000000
     22512      1849  TIP3      H1             24.2314022510       37.8951389014       80.4209418850  TIP3      1713            0.0000000000
     22513      1849  TIP3      H2             22.9605784765       37.6248215951       81.1748015709  TIP3      1713            0.0000000000
     22514      1850  TIP3      OH2            32.1188413339       37.6677635900       81.0877740758  TIP3      1714            0.0000000000
     22515      1850  TIP3      H1             32.2143997123       37.1188169242       81.8957316772  TIP3      1714            0.0000000000
     22516      1850  TIP3      H2             32.9711310409       37.4571717068       80.6521238915  TIP3      1714            0.0000000000
     22517      1851  TIP3      OH2            35.5202331475       53.8547401124       79.3190636124  TIP3      1715            0.0000000000
     22518      1851  TIP3      H1             34.7181587732       53.6797119283       78.7673093109  TIP3      1715            0.0000000000
     22519      1851  TIP3      H2             35.3889447912       54.7927706882       79.5644596457  TIP3      1715            0.0000000000
     22520      1852  TIP3      OH2            50.5045723601       47.8429535950       69.4590534205  TIP3      1716            0.0000000000
     22521      1852  TIP3      H1             50.3167680218       48.8034684311       69.4037069891  TIP3      1716            0.0000000000
     22522      1852  TIP3      H2             49.7219693290       47.4794219637       69.0316722513  TIP3      1716            0.0000000000
     22523      1853  TIP3      OH2            48.7829820565       46.4122023190       72.3675309661  TIP3      1717            0.0000000000
     22524      1853  TIP3      H1             48.7916788865       45.9979927616       73.2500980448  TIP3      1717            0.0000000000
     22525      1853  TIP3      H2             47.9474397817       46.0771470884       71.9987591418  TIP3      1717            0.0000000000
     22526      1854  TIP3      OH2            40.6325669812       46.4575987044       74.1921213678  TIP3      1718            0.0000000000
     22527      1854  TIP3      H1             40.5978334390       45.6540015018       74.7456175269  TIP3      1718            0.0000000000
     22528      1854  TIP3      H2             41.5481912292       46.7424584680       74.3439800224  TIP3      1718            0.0000000000
     22529      1855  TIP3      OH2            52.2193070809       49.7125435265       71.5401454064  TIP3      1719            0.0000000000
     22530      1855  TIP3      H1             51.7888331549       49.0492310406       72.0927656158  TIP3      1719            0.0000000000
     22531      1855  TIP3      H2             52.4066587916       50.4587715654       72.1375593800  TIP3      1719            0.0000000000
     22532      1856  TIP3      OH2            41.9886406472       51.1090561578       72.6839683487  TIP3      1720            0.0000000000
     22533      1856  TIP3      H1             41.7744829054       50.2702217893       72.2224265476  TIP3      1720            0.0000000000
     22534      1856  TIP3      H2             42.9572959726       50.9558274959       72.7682802148  TIP3      1720            0.0000000000
     22535      1857  TIP3      OH2            38.6423666367       44.0896348123       67.9347665851  TIP3      1721            0.0000000000
     22536      1857  TIP3      H1             38.3441057647       44.9538305045       68.2920169729  TIP3      1721            0.0000000000
     22537      1857  TIP3      H2             38.0805337079       44.0638023667       67.1285162579  TIP3      1721            0.0000000000
     22538      1858  TIP3      OH2            38.5820431581       46.5676692827       70.7428627397  TIP3      1722            0.0000000000
     22539      1858  TIP3      H1             38.9691240941       45.6679327042       70.8642900497  TIP3      1722            0.0000000000
     22540      1858  TIP3      H2             39.3488895583       47.0692639074       70.4340693360  TIP3      1722            0.0000000000
     22541      1859  TIP3      OH2            49.4744802002       55.0373749185       71.2041036332  TIP3      1723            0.0000000000
     22542      1859  TIP3      H1             50.2092926836       54.5748494950       70.7419555996  TIP3      1723            0.0000000000
     22543      1859  TIP3      H2             49.1289024599       54.3094649847       71.7341924774  TIP3      1723            0.0000000000
     22544      1860  TIP3      OH2            46.6524598256       49.1853363920       73.7246223032  TIP3      1724            0.0000000000
     22545      1860  TIP3      H1             46.9086789638       48.9661187756       72.8232623727  TIP3      1724            0.0000000000
     22546      1860  TIP3      H2             47.5244032201       49.3568202905       74.1398659669  TIP3      1724            0.0000000000
     22547      1861  TIP3      OH2            55.5373660561       40.7788183318       73.4394068358  TIP3      1725            0.0000000000
     22548      1861  TIP3      H1             55.6435933542       41.2228972490       74.3014361356  TIP3      1725            0.0000000000
     22549      1861  TIP3      H2             56.3312761632       41.1158387294       72.9950714502  TIP3      1725            0.0000000000
     22550      1862  TIP3      OH2            50.7028243293       43.8854877928       73.8950330253  TIP3      1726            0.0000000000
     22551      1862  TIP3      H1             50.8884537248       43.0212255602       74.3061261317  TIP3      1726            0.0000000000
     22552      1862  TIP3      H2             50.5809822015       43.5955434816       72.9715148926  TIP3      1726            0.0000000000
     22553      1863  TIP3      OH2            43.5013520650       41.6698026733       70.4891134481  TIP3      1727            0.0000000000
     22554      1863  TIP3      H1             43.5748988739       42.5101855640       69.9955034968  TIP3      1727            0.0000000000
     22555      1863  TIP3      H2             42.9491119104       41.1601990716       69.8607683286  TIP3      1727            0.0000000000
     22556      1864  TIP3      OH2            50.5069632363       41.8545011896       69.7242114037  TIP3      1728            0.0000000000
     22557      1864  TIP3      H1             51.0825910547       41.3109125261       70.3137928352  TIP3      1728            0.0000000000
     22558      1864  TIP3      H2             51.2087501341       42.3211530364       69.2292995166  TIP3      1728            0.0000000000
     22559      1865  TIP3      OH2            39.8708978165       44.3566546793       71.4150783426  TIP3      1729            0.0000000000
     22560      1865  TIP3      H1             40.4609734750       43.8940463124       72.0335698823  TIP3      1729            0.0000000000
     22561      1865  TIP3      H2             40.1875653744       43.9588045953       70.5660094840  TIP3      1729            0.0000000000
     22562      1866  TIP3      OH2            44.5707320559       45.9522262732       70.9709431628  TIP3      1730            0.0000000000
     22563      1866  TIP3      H1             45.4233053943       45.5384535368       71.1946519971  TIP3      1730            0.0000000000
     22564      1866  TIP3      H2             44.1985712332       45.2385428644       70.4060093576  TIP3      1730            0.0000000000
     22565      1867  TIP3      OH2            55.7743982381       42.0416481099       76.0635207539  TIP3      1731            0.0000000000
     22566      1867  TIP3      H1             55.3471998122       42.9102589838       75.8877577965  TIP3      1731            0.0000000000
     22567      1867  TIP3      H2             56.2886595352       42.2732017333       76.8525465639  TIP3      1731            0.0000000000
     22568      1868  TIP3      OH2            42.5201877367       40.8522118504       74.9055193075  TIP3      1732            0.0000000000
     22569      1868  TIP3      H1             42.0235240980       41.2516579167       74.1671595980  TIP3      1732            0.0000000000
     22570      1868  TIP3      H2             41.8601531340       40.9832252701       75.6136331300  TIP3      1732            0.0000000000
     22571      1869  TIP3      OH2            49.3982170794       50.4254717405       68.6862362541  TIP3      1733            0.0000000000
     22572      1869  TIP3      H1             49.5199490300       51.0140531325       67.9287970532  TIP3      1733            0.0000000000
     22573      1869  TIP3      H2             48.8721738522       51.0016027226       69.2810962611  TIP3      1733            0.0000000000
     22574      1870  TIP3      OH2            44.3207919549       48.4430913136       74.8710737357  TIP3      1734            0.0000000000
     22575      1870  TIP3      H1             43.8034078316       49.2503179744       75.0947034975  TIP3      1734            0.0000000000
     22576      1870  TIP3      H2             45.1525435194       48.8282785055       74.5147117874  TIP3      1734            0.0000000000
     22577      1871  TIP3      OH2            52.8902692575       41.1370593233       70.9726692730  TIP3      1735            0.0000000000
     22578      1871  TIP3      H1             52.9034503528       40.9778334624       71.9271617717  TIP3      1735            0.0000000000
     22579      1871  TIP3      H2             53.8075769628       41.3677603912       70.7902428863  TIP3      1735            0.0000000000
     22580      1872  TIP3      OH2            41.8983787341       42.6960571191       72.6019424182  TIP3      1736            0.0000000000
     22581      1872  TIP3      H1             42.5163428952       43.2973009016       73.0814786808  TIP3      1736            0.0000000000
     22582      1872  TIP3      H2             42.4365425719       42.4261507061       71.8198255722  TIP3      1736            0.0000000000
     22583      1873  TIP3      OH2            43.1728081466       50.6455694721       75.7370836133  TIP3      1737            0.0000000000
     22584      1873  TIP3      H1             43.0735096515       51.5931759560       75.5314075303  TIP3      1737            0.0000000000
     22585      1873  TIP3      H2             42.3420260638       50.4857648255       76.2470728429  TIP3      1737            0.0000000000
     22586      1874  TIP3      OH2            38.9542041026       49.6024203804       66.3682307992  TIP3      1738            0.0000000000
     22587      1874  TIP3      H1             38.7813599493       50.0461320557       65.5060467636  TIP3      1738            0.0000000000
     22588      1874  TIP3      H2             38.9184023799       50.3659065008       66.9778675007  TIP3      1738            0.0000000000
     22589      1875  TIP3      OH2            52.8344955985       51.6661934068       73.4576114874  TIP3      1739            0.0000000000
     22590      1875  TIP3      H1             51.8500691446       51.7376150497       73.5744220485  TIP3      1739            0.0000000000
     22591      1875  TIP3      H2             52.9640259491       52.5665170667       73.0921115683  TIP3      1739            0.0000000000
     22592      1876  TIP3      OH2            52.8320113324       40.1576135723       74.8268157594  TIP3      1740            0.0000000000
     22593      1876  TIP3      H1             52.0959640076       40.2149260660       74.1796884844  TIP3      1740            0.0000000000
     22594      1876  TIP3      H2             53.5196495565       40.6900919091       74.3926031961  TIP3      1740            0.0000000000
     22595      1877  TIP3      OH2            45.4651636400       37.9314327333       71.8991112139  TIP3      1741            0.0000000000
     22596      1877  TIP3      H1             45.0532174486       37.0901992554       72.1563166899  TIP3      1741            0.0000000000
     22597      1877  TIP3      H2             44.8089913573       38.5466577085       72.3271048784  TIP3      1741            0.0000000000
     22598      1878  TIP3      OH2            51.2638824221       53.7967141750       69.6210478308  TIP3      1742            0.0000000000
     22599      1878  TIP3      H1             51.5292586982       52.9976936756       69.1011406067  TIP3      1742            0.0000000000
     22600      1878  TIP3      H2             52.1459856750       54.2542645536       69.6101168483  TIP3      1742            0.0000000000
     22601      1879  TIP3      OH2            52.5269679327       51.6822417675       68.4871910453  TIP3      1743            0.0000000000
     22602      1879  TIP3      H1             52.5867105531       51.0201253693       67.7607880313  TIP3      1743            0.0000000000
     22603      1879  TIP3      H2             52.4810622630       51.0932756672       69.2522951715  TIP3      1743            0.0000000000
     22604      1880  TIP3      OH2            53.6873067486       50.0510688416       77.1011330089  TIP3      1744            0.0000000000
     22605      1880  TIP3      H1             54.0499310510       49.3552265959       76.5195308415  TIP3      1744            0.0000000000
     22606      1880  TIP3      H2             53.9726797499       50.8605177598       76.6266369863  TIP3      1744            0.0000000000
     22607      1881  TIP3      OH2            48.3699938343       46.7349096009       66.8093934579  TIP3      1745            0.0000000000
     22608      1881  TIP3      H1             47.5928617178       47.3136127169       66.9771907479  TIP3      1745            0.0000000000
     22609      1881  TIP3      H2             48.9460635399       47.3431091396       66.3214825887  TIP3      1745            0.0000000000
     22610      1882  TIP3      OH2            55.8239390511       46.3709148606       74.9833552459  TIP3      1746            0.0000000000
     22611      1882  TIP3      H1             55.4178767457       47.2177486671       75.2653374074  TIP3      1746            0.0000000000
     22612      1882  TIP3      H2             56.7599335960       46.6257872509       74.9398087650  TIP3      1746            0.0000000000
     22613      1883  TIP3      OH2            52.7380336927       47.1917019844       68.1380457051  TIP3      1747            0.0000000000
     22614      1883  TIP3      H1             51.8873482856       47.4720078350       68.5488031309  TIP3      1747            0.0000000000
     22615      1883  TIP3      H2             52.9876095777       46.4652827742       68.7123408857  TIP3      1747            0.0000000000
     22616      1884  TIP3      OH2            52.2261590921       45.6267678266       77.2151223090  TIP3      1748            0.0000000000
     22617      1884  TIP3      H1             52.2519131588       46.2749760125       77.9512465849  TIP3      1748            0.0000000000
     22618      1884  TIP3      H2             51.2965736261       45.6941983876       76.9599829737  TIP3      1748            0.0000000000
     22619      1885  TIP3      OH2            43.1386356133       47.7024364027       69.5883747626  TIP3      1749            0.0000000000
     22620      1885  TIP3      H1             42.9409191463       47.1683258189       68.7911554437  TIP3      1749            0.0000000000
     22621      1885  TIP3      H2             43.7660006201       47.1050220054       70.0507804554  TIP3      1749            0.0000000000
     22622      1886  TIP3      OH2            44.6947016033       50.7560829344       72.3258258909  TIP3      1750            0.0000000000
     22623      1886  TIP3      H1             44.9526689902       50.6321880355       71.3963911269  TIP3      1750            0.0000000000
     22624      1886  TIP3      H2             45.4579330456       50.4157325272       72.8321384268  TIP3      1750            0.0000000000
     22625      1887  TIP3      OH2            43.4717212217       46.4421572165       73.4049973814  TIP3      1751            0.0000000000
     22626      1887  TIP3      H1             43.7940612438       46.4394575648       72.4787423259  TIP3      1751            0.0000000000
     22627      1887  TIP3      H2             44.0464054089       47.1265881907       73.8186192787  TIP3      1751            0.0000000000
     22628      1888  TIP3      OH2            50.2998021052       52.0839743748       74.0457597518  TIP3      1752            0.0000000000
     22629      1888  TIP3      H1             50.0307307006       52.7767800552       74.6789424833  TIP3      1752            0.0000000000
     22630      1888  TIP3      H2             49.8208577191       51.3055123423       74.3912351658  TIP3      1752            0.0000000000
     22631      1889  TIP3      OH2            44.8596614922       50.8560868667       77.8693549262  TIP3      1753            0.0000000000
     22632      1889  TIP3      H1             44.1294871918       51.2013223774       78.4235691728  TIP3      1753            0.0000000000
     22633      1889  TIP3      H2             44.4205656641       50.7094409580       77.0086093502  TIP3      1753            0.0000000000
     22634      1890  TIP3      OH2            41.5484242579       47.4445478486       76.7123212409  TIP3      1754            0.0000000000
     22635      1890  TIP3      H1             41.9565274896       48.0162742502       77.3763098753  TIP3      1754            0.0000000000
     22636      1890  TIP3      H2             40.8570037749       47.0218996394       77.2503674467  TIP3      1754            0.0000000000
     22637      1891  TIP3      OH2            48.2640083976       52.6664702331       69.8051388625  TIP3      1755            0.0000000000
     22638      1891  TIP3      H1             48.9000037106       53.3878173534       69.9265173468  TIP3      1755            0.0000000000
     22639      1891  TIP3      H2             47.4699632936       53.0946903214       69.4592676587  TIP3      1755            0.0000000000
     22640      1892  TIP3      OH2            43.1538926583       52.6154715137       79.2404600340  TIP3      1756            0.0000000000
     22641      1892  TIP3      H1             43.2029425666       53.0383136137       78.3681961679  TIP3      1756            0.0000000000
     22642      1892  TIP3      H2             42.1895316846       52.4223344175       79.2751281792  TIP3      1756            0.0000000000
     22643      1893  TIP3      OH2            42.4189041528       46.2630704426       67.4472611276  TIP3      1757            0.0000000000
     22644      1893  TIP3      H1             41.9276428657       47.0625754823       67.1551458679  TIP3      1757            0.0000000000
     22645      1893  TIP3      H2             42.1764721214       45.6168699233       66.7637555530  TIP3      1757            0.0000000000
     22646      1894  TIP3      OH2            55.6529524852       53.1742696185       63.6438992700  TIP3      1758            0.0000000000
     22647      1894  TIP3      H1             55.5890832377       53.8122815674       62.9188289475  TIP3      1758            0.0000000000
     22648      1894  TIP3      H2             56.1226644906       52.4326245845       63.2406044316  TIP3      1758            0.0000000000
     22649      1895  TIP3      OH2            38.5519769899       49.0760221873       76.1933676515  TIP3      1759            0.0000000000
     22650      1895  TIP3      H1             37.7563701648       48.6981204840       75.7856144021  TIP3      1759            0.0000000000
     22651      1895  TIP3      H2             39.1052758679       48.2668527910       76.2421219764  TIP3      1759            0.0000000000
     22652      1896  TIP3      OH2            38.5623158898       52.2043467056       72.6908739253  TIP3      1760            0.0000000000
     22653      1896  TIP3      H1             39.4205869966       52.6550589518       72.6463493875  TIP3      1760            0.0000000000
     22654      1896  TIP3      H2             38.0008369401       52.9501206769       72.9620375105  TIP3      1760            0.0000000000
     22655      1897  TIP3      OH2            56.4893543134       52.6519268018       78.8278450862  TIP3      1761            0.0000000000
     22656      1897  TIP3      H1             56.5128174394       51.7378248711       79.1762040847  TIP3      1761            0.0000000000
     22657      1897  TIP3      H2             55.6496594638       52.9370319907       79.2690964274  TIP3      1761            0.0000000000
     22658      1898  TIP3      OH2            47.3839529106       51.9437229680       77.8446670505  TIP3      1762            0.0000000000
     22659      1898  TIP3      H1             47.4720444626       52.7343718714       78.4007769475  TIP3      1762            0.0000000000
     22660      1898  TIP3      H2             46.4337502195       51.6836672084       77.9240889664  TIP3      1762            0.0000000000
     22661      1899  TIP3      OH2            47.7458012569       56.0291943929       67.1895030996  TIP3      1763            0.0000000000
     22662      1899  TIP3      H1             47.5569864195       56.4152590790       66.3305234027  TIP3      1763            0.0000000000
     22663      1899  TIP3      H2             47.6521168972       56.8311482115       67.7510452432  TIP3      1763            0.0000000000
     22664      1900  TIP3      OH2            41.6394819091       54.3574858917       69.2689324778  TIP3      1764            0.0000000000
     22665      1900  TIP3      H1             41.9103610073       54.0549975553       70.1660080562  TIP3      1764            0.0000000000
     22666      1900  TIP3      H2             40.7708642998       53.9333493310       69.1748081139  TIP3      1764            0.0000000000
     22667      1901  TIP3      OH2            50.2689709815       55.1275626778       67.3755726931  TIP3      1765            0.0000000000
     22668      1901  TIP3      H1             49.3182843306       55.2843131384       67.5184471003  TIP3      1765            0.0000000000
     22669      1901  TIP3      H2             50.5399564073       54.5960492499       68.1548208181  TIP3      1765            0.0000000000
     22670      1902  TIP3      OH2            54.0974591662       44.2563428404       78.5927578807  TIP3      1766            0.0000000000
     22671      1902  TIP3      H1             53.3697161979       44.7500702520       78.1519998440  TIP3      1766            0.0000000000
     22672      1902  TIP3      H2             53.8294544710       43.3324944948       78.4136570954  TIP3      1766            0.0000000000
     22673      1903  TIP3      OH2            40.8727862715       50.4950723188       76.9914844786  TIP3      1767            0.0000000000
     22674      1903  TIP3      H1             41.0479007113       50.2229856580       77.9242323347  TIP3      1767            0.0000000000
     22675      1903  TIP3      H2             39.9959824160       50.0699649709       76.9036171262  TIP3      1767            0.0000000000
     22676      1904  TIP3      OH2            43.6470182235       39.4471374502       73.0008988079  TIP3      1768            0.0000000000
     22677      1904  TIP3      H1             42.7304668277       39.3637499729       72.6546251140  TIP3      1768            0.0000000000
     22678      1904  TIP3      H2             43.5147439619       40.0795540668       73.7343801722  TIP3      1768            0.0000000000
     22679      1905  TIP3      OH2            47.9082322485       38.4447023565       76.4825582213  TIP3      1769            0.0000000000
     22680      1905  TIP3      H1             48.4334269687       38.1877667646       77.2708137674  TIP3      1769            0.0000000000
     22681      1905  TIP3      H2             46.9842547992       38.3391584013       76.7766683941  TIP3      1769            0.0000000000
     22682      1906  TIP3      OH2            51.3351427285       42.9073633172       77.1208990450  TIP3      1770            0.0000000000
     22683      1906  TIP3      H1             50.7235791390       42.3578472615       77.6510567919  TIP3      1770            0.0000000000
     22684      1906  TIP3      H2             51.4487182559       43.6578512569       77.7177859145  TIP3      1770            0.0000000000
     22685      1907  TIP3      OH2            47.9876528691       41.0267389491       64.3438775938  TIP3      1771            0.0000000000
     22686      1907  TIP3      H1             47.6507668935       40.4859011467       65.0934764068  TIP3      1771            0.0000000000
     22687      1907  TIP3      H2             47.2261191244       41.0598202255       63.7411013215  TIP3      1771            0.0000000000
     22688      1908  TIP3      OH2            43.7476914542       43.8281488979       74.2673611457  TIP3      1772            0.0000000000
     22689      1908  TIP3      H1             42.9925892066       43.8503221105       74.8844864873  TIP3      1772            0.0000000000
     22690      1908  TIP3      H2             43.7477560741       44.7746114920       74.0044940052  TIP3      1772            0.0000000000
     22691      1909  TIP3      OH2            43.4867866836       44.0701567050       69.1889115547  TIP3      1773            0.0000000000
     22692      1909  TIP3      H1             42.5410886151       43.9913424379       68.9370323357  TIP3      1773            0.0000000000
     22693      1909  TIP3      H2             43.8725026059       44.4074468448       68.3616262797  TIP3      1773            0.0000000000
     22694      1910  TIP3      OH2            49.0011347813       44.4803083038       67.9991720727  TIP3      1774            0.0000000000
     22695      1910  TIP3      H1             48.7072527740       45.3028966901       67.5433253531  TIP3      1774            0.0000000000
     22696      1910  TIP3      H2             49.8939757267       44.3765805634       67.6444927827  TIP3      1774            0.0000000000
     22697      1911  TIP3      OH2            48.2253280605       44.9189544560       79.6241413347  TIP3      1775            0.0000000000
     22698      1911  TIP3      H1             47.8709557880       44.1278542341       80.0829401446  TIP3      1775            0.0000000000
     22699      1911  TIP3      H2             49.0267567959       45.1167768920       80.1449097457  TIP3      1775            0.0000000000
     22700      1912  TIP3      OH2            50.6707382103       44.3301931982       70.9671008577  TIP3      1776            0.0000000000
     22701      1912  TIP3      H1             50.1146490811       45.0645499355       70.6578889561  TIP3      1776            0.0000000000
     22702      1912  TIP3      H2             50.4612819891       43.6195873200       70.3245169530  TIP3      1776            0.0000000000
     22703      1913  TIP3      OH2            41.1115135274       44.0071215890       75.4667864234  TIP3      1777            0.0000000000
     22704      1913  TIP3      H1             41.6329037001       44.5297743604       76.1093410118  TIP3      1777            0.0000000000
     22705      1913  TIP3      H2             40.8456543792       43.2207958382       75.9962013350  TIP3      1777            0.0000000000
     22706      1914  TIP3      OH2            38.3103058794       41.1561865148       70.1172641297  TIP3      1778            0.0000000000
     22707      1914  TIP3      H1             39.1722011044       41.0436829331       70.5365248639  TIP3      1778            0.0000000000
     22708      1914  TIP3      H2             38.5228534495       41.6016217758       69.2842214806  TIP3      1778            0.0000000000
     22709      1915  TIP3      OH2            49.0987147413       45.6119236202       75.3112144681  TIP3      1779            0.0000000000
     22710      1915  TIP3      H1             49.8493886858       45.1179444187       74.9239098525  TIP3      1779            0.0000000000
     22711      1915  TIP3      H2             48.6383451155       44.9139935307       75.8119869541  TIP3      1779            0.0000000000
     22712      1916  TIP3      OH2            46.4593515055       41.2821429379       70.2775843151  TIP3      1780            0.0000000000
     22713      1916  TIP3      H1             45.5016203757       41.1771699363       70.4353678770  TIP3      1780            0.0000000000
     22714      1916  TIP3      H2             46.8356399944       40.7931099911       71.0413906276  TIP3      1780            0.0000000000
     22715      1917  TIP3      OH2            40.8133065616       43.1495772959       69.1661950516  TIP3      1781            0.0000000000
     22716      1917  TIP3      H1             40.1229540201       43.5008680364       68.5496184113  TIP3      1781            0.0000000000
     22717      1917  TIP3      H2             41.0321844684       42.2997898402       68.7476857218  TIP3      1781            0.0000000000
     22718      1918  TIP3      OH2            43.9469676248       43.1820193727       66.2659617950  TIP3      1782            0.0000000000
     22719      1918  TIP3      H1             44.8311401836       43.0877686631       66.6667829779  TIP3      1782            0.0000000000
     22720      1918  TIP3      H2             44.0014807948       44.0456748035       65.8290547504  TIP3      1782            0.0000000000
     22721      1919  TIP3      OH2            50.6842470429       40.7814054080       73.1513914749  TIP3      1783            0.0000000000
     22722      1919  TIP3      H1             50.0525903887       40.5947645873       73.8780142836  TIP3      1783            0.0000000000
     22723      1919  TIP3      H2             50.4343554394       40.1431962153       72.4697969245  TIP3      1783            0.0000000000
     22724      1920  TIP3      OH2            43.2347419687       45.2758183089       64.1013021183  TIP3      1784            0.0000000000
     22725      1920  TIP3      H1             42.6679310367       45.5707900382       63.3629174940  TIP3      1784            0.0000000000
     22726      1920  TIP3      H2             44.0826165569       45.0609264872       63.6624316776  TIP3      1784            0.0000000000
     22727      1921  TIP3      OH2            53.3444195123       56.4274186956       79.8163879501  TIP3      1785            0.0000000000
     22728      1921  TIP3      H1             53.5441264956       56.7988885870       78.9288472904  TIP3      1785            0.0000000000
     22729      1921  TIP3      H2             54.0997857947       56.7661998724       80.3233217383  TIP3      1785            0.0000000000
     22730      1922  TIP3      OH2            41.1800165554       49.0021186340       79.1955403697  TIP3      1786            0.0000000000
     22731      1922  TIP3      H1             41.9348766207       49.2065664001       79.7801072800  TIP3      1786            0.0000000000
     22732      1922  TIP3      H2             40.4746847508       48.7889279924       79.8578619608  TIP3      1786            0.0000000000
     22733      1923  TIP3      OH2            47.0008363806       44.2279612908       71.5498352153  TIP3      1787            0.0000000000
     22734      1923  TIP3      H1             47.9277667443       43.9331578189       71.5011983678  TIP3      1787            0.0000000000
     22735      1923  TIP3      H2             46.5749905856       43.5304212531       72.0810065021  TIP3      1787            0.0000000000
     22736      1924  TIP3      OH2            42.0053158767       40.3915160865       68.6038238862  TIP3      1788            0.0000000000
     22737      1924  TIP3      H1             41.2901589106       39.8315029444       68.9849087416  TIP3      1788            0.0000000000
     22738      1924  TIP3      H2             42.6562406599       39.7047845132       68.3864746180  TIP3      1788            0.0000000000
     22739      1925  TIP3      OH2            46.0532866254       42.3751545363       74.2691313807  TIP3      1789            0.0000000000
     22740      1925  TIP3      H1             45.2385372779       42.9037713084       74.1439512179  TIP3      1789            0.0000000000
     22741      1925  TIP3      H2             46.5851672641       42.9419935038       74.8434810139  TIP3      1789            0.0000000000
     22742      1926  TIP3      OH2            46.4612980404       48.6192932235       66.5387095688  TIP3      1790            0.0000000000
     22743      1926  TIP3      H1             45.7156707930       48.1868297960       66.0735225942  TIP3      1790            0.0000000000
     22744      1926  TIP3      H2             46.0162329511       49.1656551084       67.2294176723  TIP3      1790            0.0000000000
     22745      1927  TIP3      OH2            54.3365464935       48.5167570548       75.0714080477  TIP3      1791            0.0000000000
     22746      1927  TIP3      H1             54.5921445358       49.2289716503       74.4453632231  TIP3      1791            0.0000000000
     22747      1927  TIP3      H2             53.3952638943       48.4063047168       74.8587663062  TIP3      1791            0.0000000000
     22748      1928  TIP3      OH2            51.3654724360       41.9786918169       65.4868482504  TIP3      1792            0.0000000000
     22749      1928  TIP3      H1             50.9454809947       41.5689268226       64.7232420048  TIP3      1792            0.0000000000
     22750      1928  TIP3      H2             51.2448948189       42.9379636796       65.2596739552  TIP3      1792            0.0000000000
     22751      1929  TIP3      OH2            47.6441373468       49.2795902005       77.3390780646  TIP3      1793            0.0000000000
     22752      1929  TIP3      H1             48.0842280318       48.9950225227       78.1611197741  TIP3      1793            0.0000000000
     22753      1929  TIP3      H2             47.5475893000       50.2355040968       77.5044815380  TIP3      1793            0.0000000000
     22754      1930  TIP3      OH2            41.6099807511       48.5018902091       71.8173401344  TIP3      1794            0.0000000000
     22755      1930  TIP3      H1             41.9771654429       48.2989487035       70.9329053995  TIP3      1794            0.0000000000
     22756      1930  TIP3      H2             41.9686183269       47.7700641584       72.3452688437  TIP3      1794            0.0000000000
     22757      1931  TIP3      OH2            48.3449944829       50.3000381486       65.7170790368  TIP3      1795            0.0000000000
     22758      1931  TIP3      H1             47.9052501500       51.1017155346       66.0798916423  TIP3      1795            0.0000000000
     22759      1931  TIP3      H2             47.8063493733       49.6065125102       66.1592235895  TIP3      1795            0.0000000000
     22760      1932  TIP3      OH2            38.8480373049       46.5555400140       77.4146141353  TIP3      1796            0.0000000000
     22761      1932  TIP3      H1             38.5922376458       46.0430074145       78.2047790274  TIP3      1796            0.0000000000
     22762      1932  TIP3      H2             38.2273145282       46.2164732487       76.7433529222  TIP3      1796            0.0000000000
     22763      1933  TIP3      OH2            45.9353467315       46.2066771644       78.8854256070  TIP3      1797            0.0000000000
     22764      1933  TIP3      H1             45.5573129380       45.4703741962       78.3915448283  TIP3      1797            0.0000000000
     22765      1933  TIP3      H2             46.8509474438       45.8854402289       79.0184265310  TIP3      1797            0.0000000000
     22766      1934  TIP3      OH2            50.6071445000       51.5925386741       77.5377887341  TIP3      1798            0.0000000000
     22767      1934  TIP3      H1             49.8300454939       51.8362208352       77.0230538248  TIP3      1798            0.0000000000
     22768      1934  TIP3      H2             50.3866049901       52.0163800403       78.3944452656  TIP3      1798            0.0000000000
     22769      1935  TIP3      OH2            56.4512427455       44.1213881773       65.0996784448  TIP3      1799            0.0000000000
     22770      1935  TIP3      H1             55.7403498227       44.1023657862       64.4063512060  TIP3      1799            0.0000000000
     22771      1935  TIP3      H2             56.0265592771       44.7274929608       65.7115170395  TIP3      1799            0.0000000000
     22772      1936  TIP3      OH2            56.2888046691       49.8278580439       78.4754508386  TIP3      1800            0.0000000000
     22773      1936  TIP3      H1             55.4264282299       50.0249918613       78.0582120504  TIP3      1800            0.0000000000
     22774      1936  TIP3      H2             56.8485920982       49.7537175336       77.6642482844  TIP3      1800            0.0000000000
     22775      1937  TIP3      OH2            51.7325035630       47.4469816679       73.3458970107  TIP3      1801            0.0000000000
     22776      1937  TIP3      H1             50.8028496176       47.4297273483       73.0667257370  TIP3      1801            0.0000000000
     22777      1937  TIP3      H2             51.9758522145       46.5381082549       73.1167003861  TIP3      1801            0.0000000000
     22778      1938  TIP3      OH2            43.7682866454       51.8138174830       69.2274657525  TIP3      1802            0.0000000000
     22779      1938  TIP3      H1             43.9806133029       52.7048213647       68.8849351455  TIP3      1802            0.0000000000
     22780      1938  TIP3      H2             42.8163354749       51.8827434258       69.3441554472  TIP3      1802            0.0000000000
     22781      1939  TIP3      OH2            45.2846987914       49.6637127089       68.7098299374  TIP3      1803            0.0000000000
     22782      1939  TIP3      H1             44.6777088353       50.4326917277       68.8509177680  TIP3      1803            0.0000000000
     22783      1939  TIP3      H2             44.8867780243       48.9730901376       69.2562987645  TIP3      1803            0.0000000000
     22784      1940  TIP3      OH2            45.8951814831       53.8008752845       75.8577688181  TIP3      1804            0.0000000000
     22785      1940  TIP3      H1             46.5585348455       54.3788264422       75.4309548471  TIP3      1804            0.0000000000
     22786      1940  TIP3      H2             46.4545769975       53.3661977495       76.5242138111  TIP3      1804            0.0000000000
     22787      1941  TIP3      OH2            44.3262101875       54.4016248150       68.2798171239  TIP3      1805            0.0000000000
     22788      1941  TIP3      H1             43.3845001821       54.5985359495       68.4750084917  TIP3      1805            0.0000000000
     22789      1941  TIP3      H2             44.7289281527       55.2008686518       68.6890699405  TIP3      1805            0.0000000000
     22790      1942  TIP3      OH2            49.0794344514       49.7268627715       74.9693819956  TIP3      1806            0.0000000000
     22791      1942  TIP3      H1             48.6933093562       49.4383801075       75.8336484666  TIP3      1806            0.0000000000
     22792      1942  TIP3      H2             49.7542640753       49.0395729324       74.8243776444  TIP3      1806            0.0000000000
     22793      1943  TIP3      OH2            52.3916191844       54.2258930885       77.2414810562  TIP3      1807            0.0000000000
     22794      1943  TIP3      H1             51.5552770533       53.7704975576       77.0408820492  TIP3      1807            0.0000000000
     22795      1943  TIP3      H2             52.4395269668       54.8734657841       76.5037424130  TIP3      1807            0.0000000000
     22796      1944  TIP3      OH2            40.4706684999       41.6952573222       76.7572548016  TIP3      1808            0.0000000000
     22797      1944  TIP3      H1             39.8015380856       42.0116464745       77.3970709656  TIP3      1808            0.0000000000
     22798      1944  TIP3      H2             40.3222621426       40.7342085254       76.8362496091  TIP3      1808            0.0000000000
     22799      1945  TIP3      OH2            52.4458399175       49.5615374318       66.8165914864  TIP3      1809            0.0000000000
     22800      1945  TIP3      H1             52.5127970643       48.7214848034       67.3175220012  TIP3      1809            0.0000000000
     22801      1945  TIP3      H2             53.3156405584       49.5139951844       66.3767294587  TIP3      1809            0.0000000000
     22802      1946  TIP3      OH2            39.9779546719       53.2074341526       75.0848618234  TIP3      1810            0.0000000000
     22803      1946  TIP3      H1             40.7748791394       52.9622415263       75.5766616066  TIP3      1810            0.0000000000
     22804      1946  TIP3      H2             39.7261157337       54.0375860919       75.5241215579  TIP3      1810            0.0000000000
     22805      1947  TIP3      OH2            41.4673760463       48.6259319280       65.9030808169  TIP3      1811            0.0000000000
     22806      1947  TIP3      H1             40.6484511142       49.0241553860       66.2624164421  TIP3      1811            0.0000000000
     22807      1947  TIP3      H2             41.1755618106       48.4574911814       64.9899970313  TIP3      1811            0.0000000000
     22808      1948  TIP3      OH2            49.3925743347       40.7275785259       75.6170774849  TIP3      1812            0.0000000000
     22809      1948  TIP3      H1             49.5216436967       41.6016640205       76.0118864398  TIP3      1812            0.0000000000
     22810      1948  TIP3      H2             48.9246229888       40.2681611339       76.3422226674  TIP3      1812            0.0000000000
     22811      1949  TIP3      OH2            49.5147251170       40.9318940188       67.2043474817  TIP3      1813            0.0000000000
     22812      1949  TIP3      H1             50.1950229366       41.2627592340       66.5889348304  TIP3      1813            0.0000000000
     22813      1949  TIP3      H2             49.7859419050       41.3852674744       68.0213442076  TIP3      1813            0.0000000000
     22814      1950  TIP3      OH2            46.9883949793       52.5582394409       66.3380464778  TIP3      1814            0.0000000000
     22815      1950  TIP3      H1             46.0836806390       52.8923692654       66.4136768892  TIP3      1814            0.0000000000
     22816      1950  TIP3      H2             47.4276741532       53.2114153095       65.7881514316  TIP3      1814            0.0000000000
     22817      1951  TIP3      OH2            46.6949659116       42.8481505104       68.0172345927  TIP3      1815            0.0000000000
     22818      1951  TIP3      H1             47.4918983709       43.4109106768       68.1608086552  TIP3      1815            0.0000000000
     22819      1951  TIP3      H2             46.5751495927       42.4043891290       68.8830458095  TIP3      1815            0.0000000000
     22820      1952  TIP3      OH2            47.9899336403       43.4528407333       77.3426186443  TIP3      1816            0.0000000000
     22821      1952  TIP3      H1             48.0159097337       44.0243214010       78.1492005349  TIP3      1816            0.0000000000
     22822      1952  TIP3      H2             47.6922317743       42.6096486482       77.7145492486  TIP3      1816            0.0000000000
     22823      1953  TIP3      OH2            47.8811125200       39.4997656178       68.7535898174  TIP3      1817            0.0000000000
     22824      1953  TIP3      H1             47.4551309205       40.2453022538       69.2342179378  TIP3      1817            0.0000000000
     22825      1953  TIP3      H2             48.5623534303       39.9806029523       68.2327200397  TIP3      1817            0.0000000000
     22826      1954  TIP3      OH2            44.6483163461       54.1821917354       65.5062549145  TIP3      1818            0.0000000000
     22827      1954  TIP3      H1             45.1625711014       54.9788821409       65.6062569227  TIP3      1818            0.0000000000
     22828      1954  TIP3      H2             44.2724924272       54.0782742809       66.4013496161  TIP3      1818            0.0000000000
     22829      1955  TIP3      OH2            43.4164178264       40.8266191613       65.1346209937  TIP3      1819            0.0000000000
     22830      1955  TIP3      H1             43.3462354866       41.6646855072       65.6424964760  TIP3      1819            0.0000000000
     22831      1955  TIP3      H2             44.3478757516       40.6112363036       65.3411132458  TIP3      1819            0.0000000000
     22832      1956  TIP3      OH2            53.7677416749       41.6059081083       78.0393270344  TIP3      1820            0.0000000000
     22833      1956  TIP3      H1             52.8325173208       41.6821203084       77.7549316811  TIP3      1820            0.0000000000
     22834      1956  TIP3      H2             54.2357649721       41.5600029394       77.1834726957  TIP3      1820            0.0000000000
     22835      1957  TIP3      OH2            53.0617348277       45.3625854493       71.8389067072  TIP3      1821            0.0000000000
     22836      1957  TIP3      H1             52.1577326222       44.9915083958       71.7080528438  TIP3      1821            0.0000000000
     22837      1957  TIP3      H2             53.5006499028       44.6043825621       72.2987645680  TIP3      1821            0.0000000000
     22838      1958  TIP3      OH2            41.4537089375       51.0453504521       64.3017870268  TIP3      1822            0.0000000000
     22839      1958  TIP3      H1             42.0050950834       50.7437176922       65.0361638507  TIP3      1822            0.0000000000
     22840      1958  TIP3      H2             41.6990575500       50.4141147900       63.5911687184  TIP3      1822            0.0000000000
     22841      1959  TIP3      OH2            53.1080087579       54.4315721651       73.0367430342  TIP3      1823            0.0000000000
     22842      1959  TIP3      H1             53.2598801760       54.9795238228       72.2387344585  TIP3      1823            0.0000000000
     22843      1959  TIP3      H2             54.0331383944       54.4256810801       73.3567836835  TIP3      1823            0.0000000000
     22844      1960  TIP3      OH2            41.1765516539       38.7853657808       72.3167246385  TIP3      1824            0.0000000000
     22845      1960  TIP3      H1             40.9708643237       38.6135854441       71.3665225828  TIP3      1824            0.0000000000
     22846      1960  TIP3      H2             40.9614296449       37.9121499966       72.7230956844  TIP3      1824            0.0000000000
     22847      1961  TIP3      OH2            39.1527469080       52.0209315169       67.6521354840  TIP3      1825            0.0000000000
     22848      1961  TIP3      H1             38.8094858254       52.6568062308       68.3006143211  TIP3      1825            0.0000000000
     22849      1961  TIP3      H2             39.5364162838       52.6332431201       66.9972670868  TIP3      1825            0.0000000000
     22850      1962  TIP3      OH2            38.9055024251       55.4179741316       79.7867170712  TIP3      1826            0.0000000000
     22851      1962  TIP3      H1             39.5015282676       55.3756809632       80.5742728402  TIP3      1826            0.0000000000
     22852      1962  TIP3      H2             38.7921845470       54.4679274356       79.6021778879  TIP3      1826            0.0000000000
     22853      1963  TIP3      OH2            44.0865870238       53.6692276079       81.5787197587  TIP3      1827            0.0000000000
     22854      1963  TIP3      H1             45.0149907861       53.4858246849       81.3588837327  TIP3      1827            0.0000000000
     22855      1963  TIP3      H2             43.6450237960       53.2529211820       80.8091584577  TIP3      1827            0.0000000000
     22856      1964  TIP3      OH2            50.0906709601       52.8043506051       80.0339418106  TIP3      1828            0.0000000000
     22857      1964  TIP3      H1             49.8967170494       51.9072230847       80.4095234037  TIP3      1828            0.0000000000
     22858      1964  TIP3      H2             50.9458667606       53.0015270669       80.4714389455  TIP3      1828            0.0000000000
     22859      1965  TIP3      OH2            38.9366852524       48.7090937848       80.6906926933  TIP3      1829            0.0000000000
     22860      1965  TIP3      H1             38.6469000240       47.8035869087       80.5004374137  TIP3      1829            0.0000000000
     22861      1965  TIP3      H2             38.4192933675       49.2214802056       80.0310815220  TIP3      1829            0.0000000000
     22862      1966  TIP3      OH2            45.5863171701       48.8648760767       79.5900276249  TIP3      1830            0.0000000000
     22863      1966  TIP3      H1             45.5091085813       49.4836029716       78.8310502734  TIP3      1830            0.0000000000
     22864      1966  TIP3      H2             45.8482501156       48.0129458801       79.1550518860  TIP3      1830            0.0000000000
     22865      1967  TIP3      OH2            47.8753213021       49.7483257743       63.0627137416  TIP3      1831            0.0000000000
     22866      1967  TIP3      H1             47.8727562457       50.0608132466       63.9880762247  TIP3      1831            0.0000000000
     22867      1967  TIP3      H2             48.6666809899       49.1951113231       63.0528577574  TIP3      1831            0.0000000000
     22868      1968  TIP3      OH2            51.1466068544       48.8293252001       77.3452906723  TIP3      1832            0.0000000000
     22869      1968  TIP3      H1             51.9059238887       49.4092351956       77.1046378529  TIP3      1832            0.0000000000
     22870      1968  TIP3      H2             50.5042400138       49.5011126742       77.6253933881  TIP3      1832            0.0000000000
     22871      1969  TIP3      OH2            40.0491083298       46.0120363634       80.2459800598  TIP3      1833            0.0000000000
     22872      1969  TIP3      H1             40.8976719135       45.7603873277       79.8622286967  TIP3      1833            0.0000000000
     22873      1969  TIP3      H2             40.3375054311       46.6337332273       80.9489170554  TIP3      1833            0.0000000000
     22874      1970  TIP3      OH2            44.4253294538       47.4190203475       65.2165481365  TIP3      1834            0.0000000000
     22875      1970  TIP3      H1             43.7852735267       47.6955031684       65.8867073745  TIP3      1834            0.0000000000
     22876      1970  TIP3      H2             43.8949380685       46.7617096459       64.7293256080  TIP3      1834            0.0000000000
     22877      1971  TIP3      OH2            43.2245835693       45.3100305185       76.4986517857  TIP3      1835            0.0000000000
     22878      1971  TIP3      H1             42.8656706358       46.2203494844       76.4951194991  TIP3      1835            0.0000000000
     22879      1971  TIP3      H2             44.1678284287       45.5454950353       76.3877934445  TIP3      1835            0.0000000000
     22880      1972  TIP3      OH2            45.8082447805       45.6271981074       63.0425162015  TIP3      1836            0.0000000000
     22881      1972  TIP3      H1             46.1004522021       45.5029996441       62.1281831763  TIP3      1836            0.0000000000
     22882      1972  TIP3      H2             45.6362697978       46.5837839787       63.0844165307  TIP3      1836            0.0000000000
     22883      1973  TIP3      OH2            49.0404771595       48.3675480952       79.6324029380  TIP3      1837            0.0000000000
     22884      1973  TIP3      H1             49.9146555925       47.9348199684       79.6481581687  TIP3      1837            0.0000000000
     22885      1973  TIP3      H2             48.5502383070       47.7265298040       80.1564649605  TIP3      1837            0.0000000000
     22886      1974  TIP3      OH2            44.4155261055       43.2277229463       77.8935580091  TIP3      1838            0.0000000000
     22887      1974  TIP3      H1             44.7253336797       42.5526400953       77.2734123576  TIP3      1838            0.0000000000
     22888      1974  TIP3      H2             43.8956060456       43.8420865460       77.3334297943  TIP3      1838            0.0000000000
     22889      1975  TIP3      OH2            44.9698255612       40.7272743740       76.0524097252  TIP3      1839            0.0000000000
     22890      1975  TIP3      H1             45.4514670472       41.1463336851       75.3024163694  TIP3      1839            0.0000000000
     22891      1975  TIP3      H2             44.0477167249       40.8495567346       75.7532182048  TIP3      1839            0.0000000000
     22892      1976  TIP3      OH2            45.7894064966       46.4988250962       75.8982526676  TIP3      1840            0.0000000000
     22893      1976  TIP3      H1             46.6763107869       46.8544723030       75.7288463105  TIP3      1840            0.0000000000
     22894      1976  TIP3      H2             45.2479143265       47.2907165006       75.6974708838  TIP3      1840            0.0000000000
     22895      1977  TIP3      OH2            51.0257889902       43.5843940585       80.6384575399  TIP3      1841            0.0000000000
     22896      1977  TIP3      H1             51.0689506626       43.0495294187       81.4431138609  TIP3      1841            0.0000000000
     22897      1977  TIP3      H2             50.8656073733       44.4810589172       81.0032728652  TIP3      1841            0.0000000000
     22898      1978  TIP3      OH2            52.1781235038       47.2283800503       79.3897217042  TIP3      1842            0.0000000000
     22899      1978  TIP3      H1             51.8779024268       47.9230461207       78.7666677596  TIP3      1842            0.0000000000
     22900      1978  TIP3      H2             53.1483026175       47.2951114773       79.2980206715  TIP3      1842            0.0000000000
     22901      1979  TIP3      OH2            42.7412878147       43.6912337241       80.2379657893  TIP3      1843            0.0000000000
     22902      1979  TIP3      H1             42.1000965887       43.0336978710       79.8987213809  TIP3      1843            0.0000000000
     22903      1979  TIP3      H2             43.4479103779       43.6646498018       79.5741625183  TIP3      1843            0.0000000000
     22904      1980  TIP3      OH2            45.2717527416       38.1014690383       76.6344384014  TIP3      1844            0.0000000000
     22905      1980  TIP3      H1             45.1813993161       39.0528330278       76.4048018368  TIP3      1844            0.0000000000
     22906      1980  TIP3      H2             44.8182822723       37.6993684474       75.8804935775  TIP3      1844            0.0000000000
     22907      1981  TIP3      OH2            46.7725510801       42.6442915528       80.2315654314  TIP3      1845            0.0000000000
     22908      1981  TIP3      H1             46.4686066783       42.4832102831       81.1461238509  TIP3      1845            0.0000000000
     22909      1981  TIP3      H2             46.0457273998       42.2200130532       79.7502014340  TIP3      1845            0.0000000000
     22910      1982  TIP3      OH2            49.7847475783       41.5202686044       79.0457853500  TIP3      1846            0.0000000000
     22911      1982  TIP3      H1             49.0649986427       41.8281318430       79.6162585586  TIP3      1846            0.0000000000
     22912      1982  TIP3      H2             50.5154848734       41.5634990080       79.7000031662  TIP3      1846            0.0000000000
     22913      1983  TIP3      OH2            51.2755894208       40.2655178148       81.2144463574  TIP3      1847            0.0000000000
     22914      1983  TIP3      H1             51.0501858291       39.3135157032       81.3123515528  TIP3      1847            0.0000000000
     22915      1983  TIP3      H2             50.7034630504       40.7480736046       81.8555043014  TIP3      1847            0.0000000000
     22916      1984  TIP3      OH2            40.8627650755       41.5469215682       80.3473310540  TIP3      1848            0.0000000000
     22917      1984  TIP3      H1             40.7459546714       40.7780204740       79.7589840883  TIP3      1848            0.0000000000
     22918      1984  TIP3      H2             40.7942638693       41.1392861327       81.2365771934  TIP3      1848            0.0000000000
     22919      1985  TIP3      OH2            45.4620382150       37.8329072923       79.3368533367  TIP3      1849            0.0000000000
     22920      1985  TIP3      H1             46.0776932684       37.0815392718       79.2364302804  TIP3      1849            0.0000000000
     22921      1985  TIP3      H2             45.3460695244       38.0554353479       78.3882135591  TIP3      1849            0.0000000000
     22922      1986  TIP3      OH2            45.2285844674       39.1915338510       81.8000525894  TIP3      1850            0.0000000000
     22923      1986  TIP3      H1             45.2250711049       38.6591592264       80.9756291652  TIP3      1850            0.0000000000
     22924      1986  TIP3      H2             45.8266361834       39.9224992299       81.5399043133  TIP3      1850            0.0000000000
     22925      1987  TIP3      OH2            38.7606735452       50.6421703537       63.7706791373  TIP3      1851            0.0000000000
     22926      1987  TIP3      H1             39.6812175627       50.9681041062       63.8514034036  TIP3      1851            0.0000000000
     22927      1987  TIP3      H2             38.8864102214       50.0244394451       63.0007585165  TIP3      1851            0.0000000000
     22928      1988  TIP3      OH2            37.7831220817       55.7137744015       68.6581853309  TIP3      1852            0.0000000000
     22929      1988  TIP3      H1             37.1181832919       55.0970783557       68.2916619784  TIP3      1852            0.0000000000
     22930      1988  TIP3      H2             38.2690193553       55.1341566300       69.2807458167  TIP3      1852            0.0000000000
     22931      1989  TIP3      OH2            38.9178023928       54.1493139697       70.5527573897  TIP3      1853            0.0000000000
     22932      1989  TIP3      H1             38.2389705263       53.8752516508       71.1939813817  TIP3      1853            0.0000000000
     22933      1989  TIP3      H2             39.5016844832       54.6646860706       71.1477522550  TIP3      1853            0.0000000000
     22934      1990  TIP3      OH2            55.8757674216       54.8220105032       73.2893838462  TIP3      1854            0.0000000000
     22935      1990  TIP3      H1             56.2334838581       54.9042260617       74.1833786968  TIP3      1854            0.0000000000
     22936      1990  TIP3      H2             56.5631869310       55.2833509401       72.8001372854  TIP3      1854            0.0000000000
     22937      1991  TIP3      OH2            55.8111192720       54.3626149533       76.4142682317  TIP3      1855            0.0000000000
     22938      1991  TIP3      H1             55.4444213617       53.5564874534       75.9734941357  TIP3      1855            0.0000000000
     22939      1991  TIP3      H2             56.1050970297       53.9745661915       77.2588194644  TIP3      1855            0.0000000000
     22940      1992  TIP3      OH2            54.5199906421       50.2398691048       81.2016974650  TIP3      1856            0.0000000000
     22941      1992  TIP3      H1             53.7194307576       50.5292471705       81.7052987542  TIP3      1856            0.0000000000
     22942      1992  TIP3      H2             54.9851225463       51.1004514647       81.1001472950  TIP3      1856            0.0000000000
     22943      1993  TIP3      OH2            55.2687359015       49.2267169212       66.4078669447  TIP3      1857            0.0000000000
     22944      1993  TIP3      H1             56.1832557166       49.5671830287       66.4653629186  TIP3      1857            0.0000000000
     22945      1993  TIP3      H2             55.3874864540       48.3059353887       66.6625699933  TIP3      1857            0.0000000000
     22946      1994  TIP3      OH2            56.3913628844       46.7859074392       68.5575903773  TIP3      1858            0.0000000000
     22947      1994  TIP3      H1             55.5812390034       46.2488358642       68.6135242866  TIP3      1858            0.0000000000
     22948      1994  TIP3      H2             56.7006148621       46.7324186464       69.4800503614  TIP3      1858            0.0000000000
     22949      1995  TIP3      OH2            55.5994070003       49.5251646065       72.8673345268  TIP3      1859            0.0000000000
     22950      1995  TIP3      H1             56.5551285126       49.3785473968       72.9588485195  TIP3      1859            0.0000000000
     22951      1995  TIP3      H2             55.6269259481       50.4602042075       72.5965713357  TIP3      1859            0.0000000000
     22952      1996  TIP3      OH2            54.2328813887       52.4036406143       75.6232558569  TIP3      1860            0.0000000000
     22953      1996  TIP3      H1             53.4689251643       52.7414202326       76.1170309873  TIP3      1860            0.0000000000
     22954      1996  TIP3      H2             53.8160754658       52.1857883052       74.7614894601  TIP3      1860            0.0000000000
     22955      1997  TIP3      OH2            54.5294657858       44.1598339986       63.2817612355  TIP3      1861            0.0000000000
     22956      1997  TIP3      H1             53.6241325227       44.5448233604       63.2030826454  TIP3      1861            0.0000000000
     22957      1997  TIP3      H2             54.3411530941       43.2952566805       62.8729371524  TIP3      1861            0.0000000000
     22958      1998  TIP3      OH2            54.3856898587       44.9232604404       69.2643078438  TIP3      1862            0.0000000000
     22959      1998  TIP3      H1             53.8953734567       44.1135512184       68.9971097152  TIP3      1862            0.0000000000
     22960      1998  TIP3      H2             53.9704438442       45.1093581382       70.1267735522  TIP3      1862            0.0000000000
     22961      1999  TIP3      OH2            38.6071009899       47.6799938269       73.1970467611  TIP3      1863            0.0000000000
     22962      1999  TIP3      H1             38.5157320260       47.1961136415       72.3350632647  TIP3      1863            0.0000000000
     22963      1999  TIP3      H2             39.4444118183       47.2586137346       73.5271879057  TIP3      1863            0.0000000000
     22964      2000  TIP3      OH2            55.0256042408       47.3549347004       78.7898971648  TIP3      1864            0.0000000000
     22965      2000  TIP3      H1             55.5980237961       46.6986002256       78.3924073314  TIP3      1864            0.0000000000
     22966      2000  TIP3      H2             55.5431926952       48.1757616399       78.6721332206  TIP3      1864            0.0000000000
     22967      2001  TIP3      OH2            56.0277206285       45.0341665193       80.2311867304  TIP3      1865            0.0000000000
     22968      2001  TIP3      H1             55.2259069679       45.0301779000       79.6519840938  TIP3      1865            0.0000000000
     22969      2001  TIP3      H2             56.7629849038       45.1844406282       79.6183773001  TIP3      1865            0.0000000000
     22970      2002  TIP3      OH2            53.7063524698       41.6476871930       62.6517701332  TIP3      1866            0.0000000000
     22971      2002  TIP3      H1             53.2927112578       40.8863234909       62.2318811470  TIP3      1866            0.0000000000
     22972      2002  TIP3      H2             52.9858372558       42.0713524026       63.1408410422  TIP3      1866            0.0000000000
     22973      2003  TIP3      OH2            52.8548671327       42.8050330886       68.4322847805  TIP3      1867            0.0000000000
     22974      2003  TIP3      H1             53.2444713785       41.8971819031       68.4092599753  TIP3      1867            0.0000000000
     22975      2003  TIP3      H2             52.9492614475       43.0499767868       67.5019032604  TIP3      1867            0.0000000000
     22976      2004  TIP3      OH2            54.3718540012       43.4982456080       73.1551032190  TIP3      1868            0.0000000000
     22977      2004  TIP3      H1             55.3547792122       43.5777598088       73.2513994223  TIP3      1868            0.0000000000
     22978      2004  TIP3      H2             54.1292869955       43.6005287831       74.0910509435  TIP3      1868            0.0000000000
     22979      2005  TIP3      OH2            54.2842272265       44.2340110240       75.7431070944  TIP3      1869            0.0000000000
     22980      2005  TIP3      H1             53.3675793124       44.3822277461       76.0695569170  TIP3      1869            0.0000000000
     22981      2005  TIP3      H2             54.6248314363       45.1567733766       75.6921290108  TIP3      1869            0.0000000000
     22982      2006  TIP3      OH2            38.7259612811       42.6624492207       79.1872031805  TIP3      1870            0.0000000000
     22983      2006  TIP3      H1             39.4992084965       42.3633079762       79.7116508321  TIP3      1870            0.0000000000
     22984      2006  TIP3      H2             38.1356584383       41.8766627586       79.2298481599  TIP3      1870            0.0000000000
     22985      2007  TIP3      OH2            56.8602394776       38.2200921152       81.0929969228  TIP3      1871            0.0000000000
     22986      2007  TIP3      H1             57.2656268010       37.5580371631       80.4950797421  TIP3      1871            0.0000000000
     22987      2007  TIP3      H2             56.5932984898       38.8923436989       80.4360215391  TIP3      1871            0.0000000000
     22988      2008  TIP3      OH2            53.8839327566       40.3333054887       67.8527854225  TIP3      1872            0.0000000000
     22989      2008  TIP3      H1             54.4333759728       39.9176972321       68.5550297547  TIP3      1872            0.0000000000
     22990      2008  TIP3      H2             53.4605954737       39.5550428917       67.4451206691  TIP3      1872            0.0000000000
     22991      2009  TIP3      OH2            39.8148542435       41.0850624132       72.9986470952  TIP3      1873            0.0000000000
     22992      2009  TIP3      H1             40.1717649525       40.1719232190       72.9092228654  TIP3      1873            0.0000000000
     22993      2009  TIP3      H2             40.5991370871       41.6618692167       72.8855581750  TIP3      1873            0.0000000000
     22994      2010  TIP3      OH2            38.1406607268       43.8395190403       73.4217484595  TIP3      1874            0.0000000000
     22995      2010  TIP3      H1             38.6177273037       43.0951210125       73.0325673918  TIP3      1874            0.0000000000
     22996      2010  TIP3      H2             38.7508060630       44.5681058144       73.2165170043  TIP3      1874            0.0000000000
     22997      2011  TIP3      OH2            55.8578998564       40.3271285822       79.2464986379  TIP3      1875            0.0000000000
     22998      2011  TIP3      H1             54.9877650644       40.7631228618       79.0676025974  TIP3      1875            0.0000000000
     22999      2011  TIP3      H2             55.7723416425       39.5371809908       78.6838813539  TIP3      1875            0.0000000000
     23000      2012  TIP3      OH2            38.2133554058       40.4856650527       67.2190228855  TIP3      1876            0.0000000000
     23001      2012  TIP3      H1             37.6044829639       41.2381054845       67.1983164584  TIP3      1876            0.0000000000
     23002      2012  TIP3      H2             38.2526402596       40.2354448634       66.2852890550  TIP3      1876            0.0000000000
     23003      2013  TIP3      OH2            53.5577044732       55.0891029306       69.1310262785  TIP3      1877            0.0000000000
     23004      2013  TIP3      H1             54.2750624067       54.9897218797       68.4765590894  TIP3      1877            0.0000000000
     23005      2013  TIP3      H2             53.9075305033       55.7259895050       69.7854346281  TIP3      1877            0.0000000000
     23006      2014  TIP3      OH2            38.2693685364       38.8111885515       75.6307995752  TIP3      1878            0.0000000000
     23007      2014  TIP3      H1             37.7172866912       38.4960014510       76.3812719172  TIP3      1878            0.0000000000
     23008      2014  TIP3      H2             37.7497200655       39.5600022608       75.2890841681  TIP3      1878            0.0000000000
     23009      2015  TIP3      OH2            40.4502531261       51.9481214556       79.4922667657  TIP3      1879            0.0000000000
     23010      2015  TIP3      H1             39.5956247404       52.2738966613       79.1686066586  TIP3      1879            0.0000000000
     23011      2015  TIP3      H2             40.2027251485       51.1837436733       80.0297739864  TIP3      1879            0.0000000000
     23012      2016  TIP3      OH2            43.2615167166       53.3595840451       76.2309200289  TIP3      1880            0.0000000000
     23013      2016  TIP3      H1             43.0776869188       54.2670829531       75.8911027233  TIP3      1880            0.0000000000
     23014      2016  TIP3      H2             44.2465129303       53.3685872534       76.1571542264  TIP3      1880            0.0000000000
     23015      2017  TIP3      OH2            47.5481442346       54.8482622100       78.5576012826  TIP3      1881            0.0000000000
     23016      2017  TIP3      H1             47.6580036354       54.7374390561       79.5234010150  TIP3      1881            0.0000000000
     23017      2017  TIP3      H2             48.4659942209       55.0652513496       78.3000600030  TIP3      1881            0.0000000000
     23018      2018  TIP3      OH2            50.0096237938       56.2452442735       78.3560433477  TIP3      1882            0.0000000000
     23019      2018  TIP3      H1             50.7745431137       55.6592671468       78.2931250945  TIP3      1882            0.0000000000
     23020      2018  TIP3      H2             50.1266829344       56.6444545955       79.2457371232  TIP3      1882            0.0000000000
     23021      2019  TIP3      OH2            55.0312305016       38.1835731159       77.3778392298  TIP3      1883            0.0000000000
     23022      2019  TIP3      H1             54.1919708524       38.5914472168       77.1053653466  TIP3      1883            0.0000000000
     23023      2019  TIP3      H2             54.9907445219       37.3210290366       76.9246697876  TIP3      1883            0.0000000000
     23024      2020  TIP3      OH2            40.2227815887       56.3393465577       75.7993614992  TIP3      1884            0.0000000000
     23025      2020  TIP3      H1             39.4347031424       56.8495164664       75.4862560601  TIP3      1884            0.0000000000
     23026      2020  TIP3      H2             40.4337424608       56.8452690000       76.6085256389  TIP3      1884            0.0000000000
     23027      2021  TIP3      OH2            42.8616246558       55.7789202084       74.9666158255  TIP3      1885            0.0000000000
     23028      2021  TIP3      H1             41.9355443631       56.0562515522       75.1464243364  TIP3      1885            0.0000000000
     23029      2021  TIP3      H2             43.1184908147       56.3846516813       74.2454666046  TIP3      1885            0.0000000000
     23030      2022  TIP3      OH2            47.4726322201       55.6539556672       74.4257446309  TIP3      1886            0.0000000000
     23031      2022  TIP3      H1             46.7247561830       56.2628703618       74.3261450229  TIP3      1886            0.0000000000
     23032      2022  TIP3      H2             48.0542130423       56.2209584060       74.9877483158  TIP3      1886            0.0000000000
     23033      2023  TIP3      OH2            49.8517110474       54.3636099565       75.4704058438  TIP3      1887            0.0000000000
     23034      2023  TIP3      H1             49.1619521105       54.7354264505       74.8948857704  TIP3      1887            0.0000000000
     23035      2023  TIP3      H2             50.5757774979       55.0038872573       75.3100726888  TIP3      1887            0.0000000000
     23036      2024  TIP3      OH2            52.2978518441       56.1862386767       75.1425245692  TIP3      1888            0.0000000000
     23037      2024  TIP3      H1             52.4232757866       57.1466752904       74.9465602320  TIP3      1888            0.0000000000
     23038      2024  TIP3      H2             52.5811164246       55.8078649042       74.2881756039  TIP3      1888            0.0000000000
     23039      2025  TIP3      OH2            40.2393269197       54.9607578112       72.7784387774  TIP3      1889            0.0000000000
     23040      2025  TIP3      H1             40.0328661517       54.6980494344       73.6985907861  TIP3      1889            0.0000000000
     23041      2025  TIP3      H2             41.1371880695       54.5754024786       72.6165666685  TIP3      1889            0.0000000000
     23042      2026  TIP3      OH2            42.4362788282       53.7478381167       71.7806541388  TIP3      1890            0.0000000000
     23043      2026  TIP3      H1             42.3399721075       52.8335205768       72.1225682109  TIP3      1890            0.0000000000
     23044      2026  TIP3      H2             43.3549082368       53.9435176140       72.0692081366  TIP3      1890            0.0000000000
     23045      2027  TIP3      OH2            44.8165843294       53.9893691987       72.8878557352  TIP3      1891            0.0000000000
     23046      2027  TIP3      H1             45.1181940807       53.0662322228       72.8407321170  TIP3      1891            0.0000000000
     23047      2027  TIP3      H2             44.9252432024       54.1886125457       73.8337819875  TIP3      1891            0.0000000000
     23048      2028  TIP3      OH2            47.7590550835       39.2470499660       71.8063290335  TIP3      1892            0.0000000000
     23049      2028  TIP3      H1             46.9164979943       38.7573737212       71.9272696326  TIP3      1892            0.0000000000
     23050      2028  TIP3      H2             48.0773590450       38.8771768744       70.9621495861  TIP3      1892            0.0000000000
     23051      2029  TIP3      OH2            53.6020002070       37.7330452468       71.5495184802  TIP3      1893            0.0000000000
     23052      2029  TIP3      H1             54.1984000432       38.3792115247       71.1042740152  TIP3      1893            0.0000000000
     23053      2029  TIP3      H2             52.7231666364       38.1643331338       71.3837591219  TIP3      1893            0.0000000000
     23054      2030  TIP3      OH2            55.2621858241       39.1213306001       69.8403731815  TIP3      1894            0.0000000000
     23055      2030  TIP3      H1             55.8423514848       38.4375799861       69.4338785479  TIP3      1894            0.0000000000
     23056      2030  TIP3      H2             55.9258730005       39.8116604672       70.0788181998  TIP3      1894            0.0000000000
     23057      2031  TIP3      OH2            40.3508956084       38.6121649873       69.7557862647  TIP3      1895            0.0000000000
     23058      2031  TIP3      H1             39.4058911353       38.4142580023       69.6355229365  TIP3      1895            0.0000000000
     23059      2031  TIP3      H2             40.7693492960       37.8076027902       69.3900770199  TIP3      1895            0.0000000000
     23060      2032  TIP3      OH2            39.5567775414       38.2633122919       65.0516353574  TIP3      1896            0.0000000000
     23061      2032  TIP3      H1             40.2908051569       37.8111125703       64.6184380586  TIP3      1896            0.0000000000
     23062      2032  TIP3      H2             39.1712023863       37.5720844467       65.6216939022  TIP3      1896            0.0000000000
     23063      2033  TIP3      OH2            44.4451002710       38.1480349546       69.2108144797  TIP3      1897            0.0000000000
     23064      2033  TIP3      H1             45.2250573150       38.1570577385       68.6414406349  TIP3      1897            0.0000000000
     23065      2033  TIP3      H2             44.8335401531       37.9495075263       70.0757751355  TIP3      1897            0.0000000000
     23066      2034  TIP3      OH2            51.1225529899       38.3284467827       71.0313367335  TIP3      1898            0.0000000000
     23067      2034  TIP3      H1             50.8258734199       38.4114018299       70.1148358941  TIP3      1898            0.0000000000
     23068      2034  TIP3      H2             50.4844163772       37.6655205430       71.3812788168  TIP3      1898            0.0000000000
     23069      2035  TIP3      OH2            52.6168148958       37.9644191948       66.6344323387  TIP3      1899            0.0000000000
     23070      2035  TIP3      H1             51.8660462111       38.0897604229       66.0369229513  TIP3      1899            0.0000000000
     23071      2035  TIP3      H2             52.1726843069       37.3795388427       67.2823219779  TIP3      1899            0.0000000000
     23072      2036  TIP3      OH2            39.4942500914       54.4084223656       66.1549460640  TIP3      1900            0.0000000000
     23073      2036  TIP3      H1             38.5487272716       54.4227034281       65.9748833269  TIP3      1900            0.0000000000
     23074      2036  TIP3      H2             39.7510513826       55.2919903483       65.8215764105  TIP3      1900            0.0000000000
     23075      2037  TIP3      OH2            46.2106903657       40.4477089741       66.3458449382  TIP3      1901            0.0000000000
     23076      2037  TIP3      H1             46.4757120889       39.9477479651       67.1367481332  TIP3      1901            0.0000000000
     23077      2037  TIP3      H2             46.5051300722       41.3501305662       66.5820617139  TIP3      1901            0.0000000000
     23078      2038  TIP3      OH2            55.2626905726       54.8026127519       66.9568809534  TIP3      1902            0.0000000000
     23079      2038  TIP3      H1             55.0184286201       54.0071496563       66.4674081699  TIP3      1902            0.0000000000
     23080      2038  TIP3      H2             54.8807170715       55.4889521043       66.3551582032  TIP3      1902            0.0000000000
     23081      2039  TIP3      OH2            40.1373848402       39.0840240106       78.6499472940  TIP3      1903            0.0000000000
     23082      2039  TIP3      H1             39.6207367156       38.2790881013       78.8794317861  TIP3      1903            0.0000000000
     23083      2039  TIP3      H2             41.0197233032       38.8337740500       78.9998404244  TIP3      1903            0.0000000000
     23084      2040  TIP3      OH2            42.2609973182       38.2748281967       80.5092986578  TIP3      1904            0.0000000000
     23085      2040  TIP3      H1             43.1925244013       38.0520863471       80.3221607919  TIP3      1904            0.0000000000
     23086      2040  TIP3      H2             42.0072143240       37.5704460635       81.1308065534  TIP3      1904            0.0000000000
     23087      2041  TIP3      OH2            50.9060970458       37.5628473759       81.1554045557  TIP3      1905            0.0000000000
     23088      2041  TIP3      H1             51.0867251091       37.0783978684       81.9900665956  TIP3      1905            0.0000000000
     23089      2041  TIP3      H2             51.7402312057       37.3787105858       80.6860833349  TIP3      1905            0.0000000000
     23090      2042  TIP3      OH2            54.1608100290       53.8367725477       79.2765829587  TIP3      1906            0.0000000000
     23091      2042  TIP3      H1             53.5975408693       53.7965721602       78.4730076347  TIP3      1906            0.0000000000
     23092      2042  TIP3      H2             54.0495383101       54.7772132108       79.5084819507  TIP3      1906            0.0000000000
     23093      2043  TIP3      OH2            59.8869770702       46.2845487475       74.1648580901  TIP3      1907            0.0000000000
     23094      2043  TIP3      H1             60.1187091551       45.4724335394       74.6430586837  TIP3      1907            0.0000000000
     23095      2043  TIP3      H2             60.3286941266       46.9491760426       74.7342919631  TIP3      1907            0.0000000000
     23096      2044  TIP3      OH2            60.6921392281       51.3598102118       72.3956615686  TIP3      1908            0.0000000000
     23097      2044  TIP3      H1             60.3233780886       50.4661177518       72.2530537652  TIP3      1908            0.0000000000
     23098      2044  TIP3      H2             61.6372064179       51.1031702732       72.4299009007  TIP3      1908            0.0000000000
     23099      2045  TIP3      OH2            57.6570676396       44.4075281727       68.3263677339  TIP3      1909            0.0000000000
     23100      2045  TIP3      H1             57.3900172908       45.2959640399       68.0216636959  TIP3      1909            0.0000000000
     23101      2045  TIP3      H2             56.8208252988       43.9234678230       68.2433067770  TIP3      1909            0.0000000000
     23102      2046  TIP3      OH2            57.9644704134       46.2988391073       70.9375678534  TIP3      1910            0.0000000000
     23103      2046  TIP3      H1             58.3589098238       45.3963257190       71.0029693296  TIP3      1910            0.0000000000
     23104      2046  TIP3      H2             58.6450114784       46.7818794631       70.4416234010  TIP3      1910            0.0000000000
     23105      2047  TIP3      OH2             0.1729383793       49.6955836543       74.1963638806  TIP3      1911            0.0000000000
     23106      2047  TIP3      H1              0.4861662976       48.8049236615       73.9038957736  TIP3      1911            0.0000000000
     23107      2047  TIP3      H2              0.5770913828       50.2710116766       73.5367443145  TIP3      1911            0.0000000000
     23108      2048  TIP3      OH2            61.9945363462       41.2653333876       70.5474278358  TIP3      1912            0.0000000000
     23109      2048  TIP3      H1             62.3292148449       42.0615045695       70.0726193783  TIP3      1912            0.0000000000
     23110      2048  TIP3      H2             61.8521803374       40.6608285055       69.7960761908  TIP3      1912            0.0000000000
     23111      2049  TIP3      OH2            58.9724612674       43.6623291802       71.2598765398  TIP3      1913            0.0000000000
     23112      2049  TIP3      H1             59.5823872364       43.3134378798       71.9466888581  TIP3      1913            0.0000000000
     23113      2049  TIP3      H2             59.5969748584       43.6986466547       70.5123178728  TIP3      1913            0.0000000000
     23114      2050  TIP3      OH2            64.0307676839       45.5888309698       70.9712223376  TIP3      1914            0.0000000000
     23115      2050  TIP3      H1             64.8069370389       45.2188144012       71.4249553466  TIP3      1914            0.0000000000
     23116      2050  TIP3      H2             63.5683845556       44.7699677819       70.6695157437  TIP3      1914            0.0000000000
     23117      2051  TIP3      OH2            61.0549042600       40.5402716470       74.8847338924  TIP3      1915            0.0000000000
     23118      2051  TIP3      H1             60.7429414877       41.0030317488       74.0803239513  TIP3      1915            0.0000000000
     23119      2051  TIP3      H2             60.3538457539       40.7845803045       75.5323525588  TIP3      1915            0.0000000000
     23120      2052  TIP3      OH2            63.7563532932       48.3447955159       74.6589449722  TIP3      1916            0.0000000000
     23121      2052  TIP3      H1             63.0465911430       48.9543680538       74.9378782303  TIP3      1916            0.0000000000
     23122      2052  TIP3      H2             64.4021946681       48.9883138313       74.3159444167  TIP3      1916            0.0000000000
     23123      2053  TIP3      OH2            60.7979132026       42.4660276021       72.7692387523  TIP3      1917            0.0000000000
     23124      2053  TIP3      H1             61.5142897785       42.8607395576       73.3163757705  TIP3      1917            0.0000000000
     23125      2053  TIP3      H2             61.2919198227       42.2050363823       71.9488246246  TIP3      1917            0.0000000000
     23126      2054  TIP3      OH2            62.0115881924       50.3631909535       75.4993332697  TIP3      1918            0.0000000000
     23127      2054  TIP3      H1             61.9182787169       50.7467997128       74.6202548407  TIP3      1918            0.0000000000
     23128      2054  TIP3      H2             61.1099914473       50.5030430201       75.8686449630  TIP3      1918            0.0000000000
     23129      2055  TIP3      OH2            58.1310542284       50.0627819994       66.3774479010  TIP3      1919            0.0000000000
     23130      2055  TIP3      H1             58.8246851690       50.6326555444       66.0143412802  TIP3      1919            0.0000000000
     23131      2055  TIP3      H2             58.2551797243       50.1452601895       67.3272834454  TIP3      1919            0.0000000000
     23132      2056  TIP3      OH2            64.6922743767       38.4334708459       72.4374423369  TIP3      1920            0.0000000000
     23133      2056  TIP3      H1             64.9866811336       37.6887769747       72.9817612126  TIP3      1920            0.0000000000
     23134      2056  TIP3      H2             63.7734860304       38.6043867597       72.7526837828  TIP3      1920            0.0000000000
     23135      2057  TIP3      OH2            62.1402795026       47.5487126708       70.1134682234  TIP3      1921            0.0000000000
     23136      2057  TIP3      H1             61.4030596055       47.5119265274       69.4579863980  TIP3      1921            0.0000000000
     23137      2057  TIP3      H2             62.3159716724       46.6155310264       70.3153982599  TIP3      1921            0.0000000000
     23138      2058  TIP3      OH2            63.4742498324       50.6929422301       72.2410314311  TIP3      1922            0.0000000000
     23139      2058  TIP3      H1             63.2605137062       51.0369815713       71.3469252457  TIP3      1922            0.0000000000
     23140      2058  TIP3      H2             64.4394029572       50.7013352993       72.2842922939  TIP3      1922            0.0000000000
     23141      2059  TIP3      OH2            63.1187797372       45.9933329358       73.5268918491  TIP3      1923            0.0000000000
     23142      2059  TIP3      H1             63.3120247142       46.1252104595       72.5780767444  TIP3      1923            0.0000000000
     23143      2059  TIP3      H2             63.3997987454       46.8461105011       73.9348898150  TIP3      1923            0.0000000000
     23144      2060  TIP3      OH2            63.5922318418       50.4555038954       77.6029131159  TIP3      1924            0.0000000000
     23145      2060  TIP3      H1             63.0244877783       51.0827221689       78.1010907170  TIP3      1924            0.0000000000
     23146      2060  TIP3      H2             63.0632524159       50.3970088754       76.7725654089  TIP3      1924            0.0000000000
     23147      2061  TIP3      OH2            60.6007833387       47.1067370020       76.5888399015  TIP3      1925            0.0000000000
     23148      2061  TIP3      H1             60.9891020103       47.6079216562       77.3326484861  TIP3      1925            0.0000000000
     23149      2061  TIP3      H2             59.7384223988       46.8543923559       76.9570981366  TIP3      1925            0.0000000000
     23150      2062  TIP3      OH2            61.9313568488       52.1430241068       78.9286373072  TIP3      1926            0.0000000000
     23151      2062  TIP3      H1             61.8459068786       52.5519427250       78.0407621943  TIP3      1926            0.0000000000
     23152      2062  TIP3      H2             60.9856621460       52.0129385704       79.1573575302  TIP3      1926            0.0000000000
     23153      2063  TIP3      OH2            60.2854807063       46.5465389369       68.2668492990  TIP3      1927            0.0000000000
     23154      2063  TIP3      H1             59.4180623790       46.7702828001       67.8860125851  TIP3      1927            0.0000000000
     23155      2063  TIP3      H2             60.4910049124       45.6725321328       67.8931454580  TIP3      1927            0.0000000000
     23156      2064  TIP3      OH2            57.5304599995       49.0881368424       76.2337110993  TIP3      1928            0.0000000000
     23157      2064  TIP3      H1             57.2513213662       49.0985141444       75.3096823816  TIP3      1928            0.0000000000
     23158      2064  TIP3      H2             57.7638230330       48.1418244771       76.3675241570  TIP3      1928            0.0000000000
     23159      2065  TIP3      OH2            57.6572741058       51.7280825347       72.9975689585  TIP3      1929            0.0000000000
     23160      2065  TIP3      H1             58.6024393276       51.7452722636       72.8046167541  TIP3      1929            0.0000000000
     23161      2065  TIP3      H2             57.6384943947       52.3300845709       73.7634569043  TIP3      1929            0.0000000000
     23162      2066  TIP3      OH2            60.4246040530       54.7596305152       69.3605077876  TIP3      1930            0.0000000000
     23163      2066  TIP3      H1             60.7429721072       54.4762128233       70.2510120675  TIP3      1930            0.0000000000
     23164      2066  TIP3      H2             59.9701263368       53.9505132909       69.0631709105  TIP3      1930            0.0000000000
     23165      2067  TIP3      OH2            59.6336099046       50.6351723813       76.8032610174  TIP3      1931            0.0000000000
     23166      2067  TIP3      H1             59.8302099324       50.4092964450       77.7342643527  TIP3      1931            0.0000000000
     23167      2067  TIP3      H2             58.9262073352       49.9832393747       76.5950904253  TIP3      1931            0.0000000000
     23168      2068  TIP3      OH2            62.1965875135       38.7940272947       73.2846897967  TIP3      1932            0.0000000000
     23169      2068  TIP3      H1             61.3500149730       38.6851386035       72.7932856973  TIP3      1932            0.0000000000
     23170      2068  TIP3      H2             61.9326297492       39.4783188389       73.9424918297  TIP3      1932            0.0000000000
     23171      2069  TIP3      OH2            62.4935107471       43.5623270824       74.6384669024  TIP3      1933            0.0000000000
     23172      2069  TIP3      H1             61.6903962563       43.6931049788       75.1891233815  TIP3      1933            0.0000000000
     23173      2069  TIP3      H2             62.5605861531       44.4134027802       74.1470070603  TIP3      1933            0.0000000000
     23174      2070  TIP3      OH2            62.7008801844       43.7335032958       69.6615501468  TIP3      1934            0.0000000000
     23175      2070  TIP3      H1             61.7778260648       43.8298180634       69.3211649349  TIP3      1934            0.0000000000
     23176      2070  TIP3      H2             63.1739508621       43.6976814235       68.8102974047  TIP3      1934            0.0000000000
     23177      2071  TIP3      OH2            60.1096633211       43.7555696298       75.9350422810  TIP3      1935            0.0000000000
     23178      2071  TIP3      H1             60.2873695953       44.0396000464       76.8348212474  TIP3      1935            0.0000000000
     23179      2071  TIP3      H2             59.7369794084       42.8626431791       76.0903693913  TIP3      1935            0.0000000000
     23180      2072  TIP3      OH2            57.0168601398       41.1436502555       70.2401790500  TIP3      1936            0.0000000000
     23181      2072  TIP3      H1             57.4320494834       40.9945278394       71.1068625396  TIP3      1936            0.0000000000
     23182      2072  TIP3      H2             57.1487565731       42.0891821909       70.1070364986  TIP3      1936            0.0000000000
     23183      2073  TIP3      OH2            57.8420157545       41.9019703172       65.4029933139  TIP3      1937            0.0000000000
     23184      2073  TIP3      H1             58.5389620542       42.4658626713       65.0619855930  TIP3      1937            0.0000000000
     23185      2073  TIP3      H2             57.1267897185       42.5785332415       65.4384370288  TIP3      1937            0.0000000000
     23186      2074  TIP3      OH2            64.6251109719       41.6280661727       70.1994393920  TIP3      1938            0.0000000000
     23187      2074  TIP3      H1             63.8100668078       41.3369311867       70.6494533863  TIP3      1938            0.0000000000
     23188      2074  TIP3      H2             65.3182989915       41.4390069809       70.8439928687  TIP3      1938            0.0000000000
     23189      2075  TIP3      OH2            60.2222910029       43.5788663854       68.8559250062  TIP3      1939            0.0000000000
     23190      2075  TIP3      H1             59.3015037445       43.8366000789       68.6202079090  TIP3      1939            0.0000000000
     23191      2075  TIP3      H2             60.2285667462       42.6583458196       68.5510411683  TIP3      1939            0.0000000000
     23192      2076  TIP3      OH2            63.2528829532       44.0166707844       66.9416927624  TIP3      1940            0.0000000000
     23193      2076  TIP3      H1             64.1187678118       43.5484937151       67.0077807757  TIP3      1940            0.0000000000
     23194      2076  TIP3      H2             62.9232777389       43.7272242224       66.0865600127  TIP3      1940            0.0000000000
     23195      2077  TIP3      OH2            60.0108404580       48.7811303016       79.2099321163  TIP3      1941            0.0000000000
     23196      2077  TIP3      H1             60.7310892882       49.0266343835       79.8281179146  TIP3      1941            0.0000000000
     23197      2077  TIP3      H2             59.2184361050       48.9077222270       79.7839980454  TIP3      1941            0.0000000000
     23198      2078  TIP3      OH2            60.9102682542       40.2584904812       68.2372011631  TIP3      1942            0.0000000000
     23199      2078  TIP3      H1             60.3055357821       39.7873220928       68.8458504889  TIP3      1942            0.0000000000
     23200      2078  TIP3      H2             61.4726184281       39.5157249554       67.9609427108  TIP3      1942            0.0000000000
     23201      2079  TIP3      OH2            64.9601944447       42.4801161799       75.0762202431  TIP3      1943            0.0000000000
     23202      2079  TIP3      H1             64.1504756626       43.0281036500       74.9541865249  TIP3      1943            0.0000000000
     23203      2079  TIP3      H2             65.5427794541       42.9280295378       74.4357841304  TIP3      1943            0.0000000000
     23204      2080  TIP3      OH2            60.7705236295       48.4566054771       72.3145500711  TIP3      1944            0.0000000000
     23205      2080  TIP3      H1             61.2316563745       48.3448891372       71.4595083860  TIP3      1944            0.0000000000
     23206      2080  TIP3      H2             60.9356935138       47.6103438553       72.7559099071  TIP3      1944            0.0000000000
     23207      2081  TIP3      OH2            57.6926539321       46.5347986393       77.1256749692  TIP3      1945            0.0000000000
     23208      2081  TIP3      H1             58.0742525306       46.2865634476       77.9909089698  TIP3      1945            0.0000000000
     23209      2081  TIP3      H2             57.1534375891       45.7601865206       76.9330475819  TIP3      1945            0.0000000000
     23210      2082  TIP3      OH2            64.8115897874       46.3340172310       78.9526938638  TIP3      1946            0.0000000000
     23211      2082  TIP3      H1             64.0868922042       46.2554858737       78.3032240497  TIP3      1946            0.0000000000
     23212      2082  TIP3      H2             65.4249976125       45.6382632951       78.6624751988  TIP3      1946            0.0000000000
     23213      2083  TIP3      OH2            62.7810269010       51.7675465122       69.7689507875  TIP3      1947            0.0000000000
     23214      2083  TIP3      H1             63.1929866069       52.5016256906       69.2854793229  TIP3      1947            0.0000000000
     23215      2083  TIP3      H2             61.8485068861       51.9363128171       69.5739614224  TIP3      1947            0.0000000000
     23216      2084  TIP3      OH2            64.2234357074       49.4724067223       68.7793670875  TIP3      1948            0.0000000000
     23217      2084  TIP3      H1             64.1182375438       50.3810808130       68.4734461965  TIP3      1948            0.0000000000
     23218      2084  TIP3      H2             63.7150909351       49.5224810111       69.5987442019  TIP3      1948            0.0000000000
     23219      2085  TIP3      OH2            64.8666875055       53.7062221918       75.7904434709  TIP3      1949            0.0000000000
     23220      2085  TIP3      H1             65.4554056108       54.4431341310       75.5702988666  TIP3      1949            0.0000000000
     23221      2085  TIP3      H2             65.3309645739       53.2984138319       76.5350867451  TIP3      1949            0.0000000000
     23222      2086  TIP3      OH2            62.8256141942       54.9348879629       68.0854451402  TIP3      1950            0.0000000000
     23223      2086  TIP3      H1             62.0014640694       54.9287316458       68.6088290721  TIP3      1950            0.0000000000
     23224      2086  TIP3      H2             63.2763055398       55.7354323886       68.4230065823  TIP3      1950            0.0000000000
     23225      2087  TIP3      OH2            59.3664091223       41.2473885426       76.8491788073  TIP3      1951            0.0000000000
     23226      2087  TIP3      H1             58.6385890881       41.6712588619       77.3205322132  TIP3      1951            0.0000000000
     23227      2087  TIP3      H2             59.2653287084       40.3065169381       77.1036578531  TIP3      1951            0.0000000000
     23228      2088  TIP3      OH2            58.9179698623       53.4780916024       75.0284996637  TIP3      1952            0.0000000000
     23229      2088  TIP3      H1             59.4448029511       52.7488888173       75.3905208536  TIP3      1952            0.0000000000
     23230      2088  TIP3      H2             59.2214450055       54.2430105731       75.5389900189  TIP3      1952            0.0000000000
     23231      2089  TIP3      OH2            65.1430920137       42.2586081919       67.6130871213  TIP3      1953            0.0000000000
     23232      2089  TIP3      H1             65.8574701890       41.6187192518       67.4345613786  TIP3      1953            0.0000000000
     23233      2089  TIP3      H2             65.0283339415       42.0495060403       68.5704221628  TIP3      1953            0.0000000000
     23234      2090  TIP3      OH2            63.3718829069       53.7316840636       65.7043771904  TIP3      1954            0.0000000000
     23235      2090  TIP3      H1             63.6461740496       54.4138624122       65.0753718020  TIP3      1954            0.0000000000
     23236      2090  TIP3      H2             63.2636157610       54.2583401879       66.5282936025  TIP3      1954            0.0000000000
     23237      2091  TIP3      OH2            60.5174925580       51.3873211534       64.4691579753  TIP3      1955            0.0000000000
     23238      2091  TIP3      H1             61.2498363543       51.8810710068       64.8668632592  TIP3      1955            0.0000000000
     23239      2091  TIP3      H2             60.8159952897       51.2488990128       63.5622969627  TIP3      1955            0.0000000000
     23240      2092  TIP3      OH2            59.7371762256       38.6986021822       72.3264049735  TIP3      1956            0.0000000000
     23241      2092  TIP3      H1             59.7556686679       38.4486273013       71.3735676350  TIP3      1956            0.0000000000
     23242      2092  TIP3      H2             59.5001326007       37.8441282251       72.7631539775  TIP3      1956            0.0000000000
     23243      2093  TIP3      OH2            58.9058822573       52.3907266572       68.7543325598  TIP3      1957            0.0000000000
     23244      2093  TIP3      H1             58.2450879915       52.7216555194       69.3900134633  TIP3      1957            0.0000000000
     23245      2093  TIP3      H2             58.5981414356       52.7570517182       67.9081913085  TIP3      1957            0.0000000000
     23246      2094  TIP3      OH2            57.7367152667       55.5069461030       79.7382421372  TIP3      1958            0.0000000000
     23247      2094  TIP3      H1             58.3135990444       55.3519649249       80.5218592405  TIP3      1958            0.0000000000
     23248      2094  TIP3      H2             57.3803529879       54.6120114759       79.6187599674  TIP3      1958            0.0000000000
     23249      2095  TIP3      OH2            62.3328354836       54.0270904804       80.9510426093  TIP3      1959            0.0000000000
     23250      2095  TIP3      H1             63.2489131260       54.0852394857       81.2591114250  TIP3      1959            0.0000000000
     23251      2095  TIP3      H2             62.4151288028       53.4177031247       80.1831081164  TIP3      1959            0.0000000000
     23252      2096  TIP3      OH2            57.6208341258       48.8510313110       80.6566988599  TIP3      1960            0.0000000000
     23253      2096  TIP3      H1             56.9337067860       48.4825320463       81.2342739726  TIP3      1960            0.0000000000
     23254      2096  TIP3      H2             57.1053496858       49.1412205197       79.8752923435  TIP3      1960            0.0000000000
     23255      2097  TIP3      OH2            64.5392508531       49.3779168189       79.9340353350  TIP3      1961            0.0000000000
     23256      2097  TIP3      H1             64.2656276513       49.7692344599       79.0693534415  TIP3      1961            0.0000000000
     23257      2097  TIP3      H2             64.6265347685       48.4482061277       79.6517333397  TIP3      1961            0.0000000000
     23258      2098  TIP3      OH2            58.6504808851       45.9136647004       79.7680481634  TIP3      1962            0.0000000000
     23259      2098  TIP3      H1             59.2009959568       45.4143067071       80.4000406473  TIP3      1962            0.0000000000
     23260      2098  TIP3      H2             58.6289471766       46.7390694673       80.2921947166  TIP3      1962            0.0000000000
     23261      2099  TIP3      OH2            62.6062237473       45.5526102188       77.3006512077  TIP3      1963            0.0000000000
     23262      2099  TIP3      H1             61.7858429491       45.9394523199       76.9335259370  TIP3      1963            0.0000000000
     23263      2099  TIP3      H2             63.2002254159       45.5740129395       76.5320697752  TIP3      1963            0.0000000000
     23264      2100  TIP3      OH2            63.2331915445       42.6649270489       77.9065036538  TIP3      1964            0.0000000000
     23265      2100  TIP3      H1             63.4304219586       42.0132400084       77.2124207475  TIP3      1964            0.0000000000
     23266      2100  TIP3      H2             63.3615313034       43.5099711584       77.4374639333  TIP3      1964            0.0000000000
     23267      2101  TIP3      OH2            63.4997869182       40.4634260196       75.9730573588  TIP3      1965            0.0000000000
     23268      2101  TIP3      H1             64.1100208117       41.1131128970       75.5599161345  TIP3      1965            0.0000000000
     23269      2101  TIP3      H2             62.6345948815       40.7507812416       75.6186987702  TIP3      1965            0.0000000000
     23270      2102  TIP3      OH2            65.4122960830       46.3730420487       75.7912088459  TIP3      1966            0.0000000000
     23271      2102  TIP3      H1             65.9681880343       46.4223851755       74.9902040128  TIP3      1966            0.0000000000
     23272      2102  TIP3      H2             64.8140153014       47.1142094546       75.5859890376  TIP3      1966            0.0000000000
     23273      2103  TIP3      OH2            61.7738410063       43.3642887695       80.1825218607  TIP3      1967            0.0000000000
     23274      2103  TIP3      H1             60.8723181601       43.0974257403       79.9324318010  TIP3      1967            0.0000000000
     23275      2103  TIP3      H2             62.2664799393       43.2066156307       79.3522611567  TIP3      1967            0.0000000000
     23276      2104  TIP3      OH2            64.2058013272       37.9672018973       76.0018229859  TIP3      1968            0.0000000000
     23277      2104  TIP3      H1             64.0632383997       38.9398769748       76.1242750899  TIP3      1968            0.0000000000
     23278      2104  TIP3      H2             63.2889263529       37.7027782499       75.7817140598  TIP3      1968            0.0000000000
     23279      2105  TIP3      OH2            65.1431421310       42.3659828744       79.9726378211  TIP3      1969            0.0000000000
     23280      2105  TIP3      H1             64.7150405626       42.0911092023       80.8050342417  TIP3      1969            0.0000000000
     23281      2105  TIP3      H2             64.3901277671       42.4025228173       79.3511920733  TIP3      1969            0.0000000000
     23282      2106  TIP3      OH2            59.4407363946       41.9081972323       79.9615211397  TIP3      1970            0.0000000000
     23283      2106  TIP3      H1             59.6845836912       41.0175817793       79.6437130581  TIP3      1970            0.0000000000
     23284      2106  TIP3      H2             59.4845275715       41.7871336308       80.9369926010  TIP3      1970            0.0000000000
     23285      2107  TIP3      OH2            64.7449399529       37.4804129000       78.6345950228  TIP3      1971            0.0000000000
     23286      2107  TIP3      H1             65.6938347236       37.6286509193       78.8043904548  TIP3      1971            0.0000000000
     23287      2107  TIP3      H2             64.6113257101       37.8245415518       77.7292215687  TIP3      1971            0.0000000000
     23288      2108  TIP3      OH2            64.7447449752       39.3662201962       80.8613247632  TIP3      1972            0.0000000000
     23289      2108  TIP3      H1             64.4826003639       39.2805943921       79.9385959286  TIP3      1972            0.0000000000
     23290      2108  TIP3      H2             64.4075701016       40.2448267095       81.0924506449  TIP3      1972            0.0000000000
     23291      2109  TIP3      OH2            64.1620532700       56.1441656992       64.2748923089  TIP3      1973            0.0000000000
     23292      2109  TIP3      H1             64.9317140487       56.0428779103       63.7035712759  TIP3      1973            0.0000000000
     23293      2109  TIP3      H2             64.2204638783       57.1121459310       64.4149015786  TIP3      1973            0.0000000000
     23294      2110  TIP3      OH2            56.6651564346       56.2114528251       68.8329847852  TIP3      1974            0.0000000000
     23295      2110  TIP3      H1             56.1344365053       55.6969309338       68.1919407273  TIP3      1974            0.0000000000
     23296      2110  TIP3      H2             56.8118061163       55.5365414504       69.5374728601  TIP3      1974            0.0000000000
     23297      2111  TIP3      OH2            57.4436879777       54.3073508842       70.6857974753  TIP3      1975            0.0000000000
     23298      2111  TIP3      H1             56.7745509107       53.9550807703       71.2951441849  TIP3      1975            0.0000000000
     23299      2111  TIP3      H2             58.1822730404       54.5104346600       71.3041865223  TIP3      1975            0.0000000000
     23300      2112  TIP3      OH2            57.7541315172       47.6282801433       73.4255580875  TIP3      1976            0.0000000000
     23301      2112  TIP3      H1             57.7598050880       47.2497620213       72.5178948501  TIP3      1976            0.0000000000
     23302      2112  TIP3      H2             58.6649342327       47.3529954959       73.6742587378  TIP3      1976            0.0000000000
     23303      2113  TIP3      OH2            57.3353169243       42.3882737193       78.4158132292  TIP3      1977            0.0000000000
     23304      2113  TIP3      H1             58.1338329807       42.4223848650       78.9959065905  TIP3      1977            0.0000000000
     23305      2113  TIP3      H2             57.0022190329       41.4794486017       78.6063607383  TIP3      1977            0.0000000000
     23306      2114  TIP3      OH2            58.3897324755       40.9097850644       72.6953863231  TIP3      1978            0.0000000000
     23307      2114  TIP3      H1             58.7770397885       39.9990348825       72.6660788707  TIP3      1978            0.0000000000
     23308      2114  TIP3      H2             59.1962679162       41.4481453504       72.6035650492  TIP3      1978            0.0000000000
     23309      2115  TIP3      OH2            56.9555841934       44.1032392163       72.9686302870  TIP3      1979            0.0000000000
     23310      2115  TIP3      H1             57.5710689645       43.6394241862       72.3623914625  TIP3      1979            0.0000000000
     23311      2115  TIP3      H2             57.5870566794       44.6510424532       73.4556395016  TIP3      1979            0.0000000000
     23312      2116  TIP3      OH2            56.8144329619       39.7495796320       66.6906832521  TIP3      1980            0.0000000000
     23313      2116  TIP3      H1             56.1237160165       40.1809654448       67.2097619969  TIP3      1980            0.0000000000
     23314      2116  TIP3      H2             57.2230927562       40.5062773841       66.2255399803  TIP3      1980            0.0000000000
     23315      2117  TIP3      OH2            57.0536705980       38.6737618944       75.5338011600  TIP3      1981            0.0000000000
     23316      2117  TIP3      H1             56.3294742802       38.4054864064       76.1357057306  TIP3      1981            0.0000000000
     23317      2117  TIP3      H2             56.6472807168       39.2997902983       74.9122511970  TIP3      1981            0.0000000000
     23318      2118  TIP3      OH2            59.1922665589       52.0804851534       79.6842262117  TIP3      1982            0.0000000000
     23319      2118  TIP3      H1             58.4381985917       52.4437328810       79.2027117917  TIP3      1982            0.0000000000
     23320      2118  TIP3      H2             59.1556936826       52.5710037354       80.5171025487  TIP3      1982            0.0000000000
     23321      2119  TIP3      OH2            62.1845912204       53.6106240207       76.3942558358  TIP3      1983            0.0000000000
     23322      2119  TIP3      H1             61.9747103267       54.4247314152       75.8751949050  TIP3      1983            0.0000000000
     23323      2119  TIP3      H2             63.1309376934       53.4912779375       76.1648962483  TIP3      1983            0.0000000000
     23324      2120  TIP3      OH2            59.4033402797       56.5670508472       75.9056448999  TIP3      1984            0.0000000000
     23325      2120  TIP3      H1             58.6406597646       57.1696560379       75.7774164168  TIP3      1984            0.0000000000
     23326      2120  TIP3      H2             59.4063575017       56.4534472780       76.8683082129  TIP3      1984            0.0000000000
     23327      2121  TIP3      OH2            61.6747972831       55.8218395587       74.8302690868  TIP3      1985            0.0000000000
     23328      2121  TIP3      H1             60.7535376739       56.0879558621       75.0559139889  TIP3      1985            0.0000000000
     23329      2121  TIP3      H2             61.9113804811       56.5183368771       74.1791945840  TIP3      1985            0.0000000000
     23330      2122  TIP3      OH2            59.0760774726       54.8326875128       72.7729631111  TIP3      1986            0.0000000000
     23331      2122  TIP3      H1             58.8576920303       54.4112391123       73.6332604144  TIP3      1986            0.0000000000
     23332      2122  TIP3      H2             59.9939285945       54.5049025079       72.6227597062  TIP3      1986            0.0000000000
     23333      2123  TIP3      OH2            61.3467786112       53.8667550174       71.6698017793  TIP3      1987            0.0000000000
     23334      2123  TIP3      H1             61.1701052041       52.9498277445       71.9751071567  TIP3      1987            0.0000000000
     23335      2123  TIP3      H2             62.2305422110       54.0179117229       72.0682376046  TIP3      1987            0.0000000000
     23336      2124  TIP3      OH2            63.6667640442       53.6718076262       73.0250678643  TIP3      1988            0.0000000000
     23337      2124  TIP3      H1             64.4382633613       53.1375950734       72.7857837181  TIP3      1988            0.0000000000
     23338      2124  TIP3      H2             63.6398160277       53.6169315931       73.9968531304  TIP3      1988            0.0000000000
     23339      2125  TIP3      OH2            59.6246253555       38.1471932443       69.6123945629  TIP3      1989            0.0000000000
     23340      2125  TIP3      H1             58.7126967287       38.3213534027       69.3346345321  TIP3      1989            0.0000000000
     23341      2125  TIP3      H2             59.7751427551       37.2524819528       69.2255961758  TIP3      1989            0.0000000000
     23342      2126  TIP3      OH2            58.3608507599       37.8126454200       65.3048804047  TIP3      1990            0.0000000000
     23343      2126  TIP3      H1             59.2765937326       38.1162181707       65.3931980221  TIP3      1990            0.0000000000
     23344      2126  TIP3      H2             57.8394983423       38.4982687302       65.7721918595  TIP3      1990            0.0000000000
     23345      2127  TIP3      OH2            63.7150686943       37.9912668847       70.0205531351  TIP3      1991            0.0000000000
     23346      2127  TIP3      H1             64.5019159374       38.0857275657       69.4603571029  TIP3      1991            0.0000000000
     23347      2127  TIP3      H2             64.0558402598       38.3331171093       70.8745144013  TIP3      1991            0.0000000000
     23348      2128  TIP3      OH2            58.3256428666       54.3877858560       66.5896067430  TIP3      1992            0.0000000000
     23349      2128  TIP3      H1             57.7537896127       53.9870508207       65.9224472465  TIP3      1992            0.0000000000
     23350      2128  TIP3      H2             57.9979747377       55.2989114711       66.6286405079  TIP3      1992            0.0000000000
     23351      2129  TIP3      OH2            64.1339478268       40.0312462418       66.0060847954  TIP3      1993            0.0000000000
     23352      2129  TIP3      H1             64.9909702328       39.8042164457       66.4129153519  TIP3      1993            0.0000000000
     23353      2129  TIP3      H2             64.0656399477       40.9673092032       66.2579140604  TIP3      1993            0.0000000000
     23354      2130  TIP3      OH2            59.1687492907       38.7378517809       78.7413322493  TIP3      1994            0.0000000000
     23355      2130  TIP3      H1             58.7027254896       37.8790760268       78.7568059020  TIP3      1994            0.0000000000
     23356      2130  TIP3      H2             59.9291773132       38.5479112022       79.3491137089  TIP3      1994            0.0000000000
     23357      2131  TIP3      OH2            61.0639978238       38.1714229036       80.5164389036  TIP3      1995            0.0000000000
     23358      2131  TIP3      H1             61.9106223159       37.7032067030       80.4134976872  TIP3      1995            0.0000000000
     23359      2131  TIP3      H2             60.5591153070       37.5242792884       81.0559623846  TIP3      1995            0.0000000000
     23360      2132  TIP3      OH2            11.1038553932       65.0650021402       72.8787876260  TIP3      1996            0.0000000000
     23361      2132  TIP3      H1             11.8552144312       64.4837428397       73.0706201850  TIP3      1996            0.0000000000
     23362      2132  TIP3      H2             10.4789680108       64.4311474831       72.4764538884  TIP3      1996            0.0000000000
     23363      2133  TIP3      OH2             3.2584761313       65.2831486833       73.7743328028  TIP3      1997            0.0000000000
     23364      2133  TIP3      H1              3.1473225053       64.5343874508       74.3896975306  TIP3      1997            0.0000000000
     23365      2133  TIP3      H2              3.5756548721       65.9778161142       74.3742347226  TIP3      1997            0.0000000000
     23366      2134  TIP3      OH2             1.5076662516       63.9367643850       68.2341403985  TIP3      1998            0.0000000000
     23367      2134  TIP3      H1              0.9959440003       64.5473026426       68.7961022520  TIP3      1998            0.0000000000
     23368      2134  TIP3      H2              0.8727580028       63.6811556739       67.5497661497  TIP3      1998            0.0000000000
     23369      2135  TIP3      OH2             1.4248421709       65.4291213956       70.6072443893  TIP3      1999            0.0000000000
     23370      2135  TIP3      H1              1.6563874499       64.5886431904       71.0596848460  TIP3      1999            0.0000000000
     23371      2135  TIP3      H2              2.2384909336       65.6417808442       70.1142434611  TIP3      1999            0.0000000000
     23372      2136  TIP3      OH2            17.7084797901       59.5632374763       73.5369344349  TIP3      2000            0.0000000000
     23373      2136  TIP3      H1             18.0852381547       60.1504437653       74.2182169458  TIP3      2000            0.0000000000
     23374      2136  TIP3      H2             18.4937404810       59.2230829073       73.0658321023  TIP3      2000            0.0000000000
     23375      2137  TIP3      OH2            12.5742239011       62.7764484713       73.7235088410  TIP3      2001            0.0000000000
     23376      2137  TIP3      H1             12.6333548840       61.8066565163       73.8499438385  TIP3      2001            0.0000000000
     23377      2137  TIP3      H2             12.5057689813       62.7943593395       72.7419300160  TIP3      2001            0.0000000000
     23378      2138  TIP3      OH2             5.6400752662       60.6501317198       70.7110809404  TIP3      2002            0.0000000000
     23379      2138  TIP3      H1              5.9600823767       61.3850901864       70.1499964685  TIP3      2002            0.0000000000
     23380      2138  TIP3      H2              5.4021905809       60.0323163099       69.9718110209  TIP3      2002            0.0000000000
     23381      2139  TIP3      OH2            13.2670565254       60.5183755347       69.6142695753  TIP3      2003            0.0000000000
     23382      2139  TIP3      H1             13.7859697380       60.2462657550       70.4058898205  TIP3      2003            0.0000000000
     23383      2139  TIP3      H2             13.7694760230       61.3024159372       69.3444154759  TIP3      2003            0.0000000000
     23384      2140  TIP3      OH2             2.0826082475       62.9025713453       71.3540613238  TIP3      2004            0.0000000000
     23385      2140  TIP3      H1              2.8028356333       62.4581943711       71.8440379004  TIP3      2004            0.0000000000
     23386      2140  TIP3      H2              2.2893020469       62.5597673903       70.4702916895  TIP3      2004            0.0000000000
     23387      2141  TIP3      OH2             7.3209238443       64.3549173369       70.8701310369  TIP3      2005            0.0000000000
     23388      2141  TIP3      H1              8.0922520199       63.7531223085       70.9869842822  TIP3      2005            0.0000000000
     23389      2141  TIP3      H2              6.7924543019       63.8515270822       70.2037376289  TIP3      2005            0.0000000000
     23390      2142  TIP3      OH2            17.9072082506       61.1003676766       75.8930289433  TIP3      2006            0.0000000000
     23391      2142  TIP3      H1             17.3371095291       61.8549269577       75.6074697350  TIP3      2006            0.0000000000
     23392      2142  TIP3      H2             18.2641567258       61.4790138528       76.7178916170  TIP3      2006            0.0000000000
     23393      2143  TIP3      OH2             4.8491914539       59.5982739861       74.6675319255  TIP3      2007            0.0000000000
     23394      2143  TIP3      H1              4.3739049133       60.1148859585       73.9917761634  TIP3      2007            0.0000000000
     23395      2143  TIP3      H2              4.2062844152       59.6724833711       75.3981905666  TIP3      2007            0.0000000000
     23396      2144  TIP3      OH2            15.2808077617       60.6353759926       71.5309003491  TIP3      2008            0.0000000000
     23397      2144  TIP3      H1             15.9661417756       59.9505494548       71.5912009616  TIP3      2008            0.0000000000
     23398      2144  TIP3      H2             15.6165340206       61.2729960044       72.2054072184  TIP3      2008            0.0000000000
     23399      2145  TIP3      OH2             4.0849608054       61.6137262277       72.6222714941  TIP3      2009            0.0000000000
     23400      2145  TIP3      H1              4.7065050284       62.1077677107       73.2046404342  TIP3      2009            0.0000000000
     23401      2145  TIP3      H2              4.7082484551       61.3013972727       71.9139902100  TIP3      2009            0.0000000000
     23402      2146  TIP3      OH2            15.0960946584       58.6368388556       74.2026492228  TIP3      2010            0.0000000000
     23403      2146  TIP3      H1             14.5074698836       59.0026435296       73.5186465263  TIP3      2010            0.0000000000
     23404      2146  TIP3      H2             15.9574165135       59.0426473613       73.9749806068  TIP3      2010            0.0000000000
     23405      2147  TIP3      OH2             8.0547612712       57.0398069849       72.1221625026  TIP3      2011            0.0000000000
     23406      2147  TIP3      H1              7.7607689821       56.1237877074       72.0886291741  TIP3      2011            0.0000000000
     23407      2147  TIP3      H2              7.2004899589       57.4754667583       72.3870230263  TIP3      2011            0.0000000000
     23408      2148  TIP3      OH2            10.5628722822       65.4342867687       66.9066543549  TIP3      2012            0.0000000000
     23409      2148  TIP3      H1             10.2947408371       66.2347564797       67.4017408523  TIP3      2012            0.0000000000
     23410      2148  TIP3      H2             11.2082153983       65.7274740419       66.2413467694  TIP3      2012            0.0000000000
     23411      2149  TIP3      OH2            17.6253608667       65.1477847198       75.1947360216  TIP3      2013            0.0000000000
     23412      2149  TIP3      H1             17.7108216265       66.1075673897       75.0395988052  TIP3      2013            0.0000000000
     23413      2149  TIP3      H2             18.5424009687       64.8578133147       75.0536534336  TIP3      2013            0.0000000000
     23414      2150  TIP3      OH2            14.2880906569       65.3496043707       68.1497726804  TIP3      2014            0.0000000000
     23415      2150  TIP3      H1             13.6591870101       64.7184243115       68.5536551999  TIP3      2014            0.0000000000
     23416      2150  TIP3      H2             15.1346251229       65.0032762452       68.4919333225  TIP3      2014            0.0000000000
     23417      2151  TIP3      OH2            13.8701706608       64.1130867082       76.9603339684  TIP3      2015            0.0000000000
     23418      2151  TIP3      H1             14.1599091186       64.7434459517       77.6580302226  TIP3      2015            0.0000000000
     23419      2151  TIP3      H2             13.1116115562       64.5542031736       76.5384433524  TIP3      2015            0.0000000000
     23420      2152  TIP3      OH2             6.3441252827       65.1567377654       73.3688129272  TIP3      2016            0.0000000000
     23421      2152  TIP3      H1              6.6155629233       64.8661931040       72.4757253468  TIP3      2016            0.0000000000
     23422      2152  TIP3      H2              6.0685183206       66.0705982067       73.1606474078  TIP3      2016            0.0000000000
     23423      2153  TIP3      OH2            13.3963276156       65.2265165248       65.1019332572  TIP3      2017            0.0000000000
     23424      2153  TIP3      H1             13.7350509393       64.9035525646       65.9498502805  TIP3      2017            0.0000000000
     23425      2153  TIP3      H2             14.0912648934       65.0395384134       64.4499878233  TIP3      2017            0.0000000000
     23426      2154  TIP3      OH2             4.7247330951       -0.1398579145       76.9682907088  TIP3      2018            0.0000000000
     23427      2154  TIP3      H1              4.6116897220        0.3503382307       77.7918841460  TIP3      2018            0.0000000000
     23428      2154  TIP3      H2              3.8104230846       -0.4814964805       76.8577105393  TIP3      2018            0.0000000000
     23429      2155  TIP3      OH2            16.8403990035       56.6586566232       65.8310097733  TIP3      2019            0.0000000000
     23430      2155  TIP3      H1             15.8959606657       56.8977864270       65.9561822205  TIP3      2019            0.0000000000
     23431      2155  TIP3      H2             17.2251732692       57.5181493937       65.6024745211  TIP3      2019            0.0000000000
     23432      2156  TIP3      OH2             4.6211133169       65.0136998264       67.5598170567  TIP3      2020            0.0000000000
     23433      2156  TIP3      H1              4.8683063224       65.0643976326       66.6339673766  TIP3      2020            0.0000000000
     23434      2156  TIP3      H2              4.2396040479       64.1285210847       67.6026920994  TIP3      2020            0.0000000000
     23435      2157  TIP3      OH2            16.2471629864       62.4927634921       78.5612783962  TIP3      2021            0.0000000000
     23436      2157  TIP3      H1             15.5226797593       62.8947851471       78.0572865127  TIP3      2021            0.0000000000
     23437      2157  TIP3      H2             15.9517407355       61.5674156608       78.5978597070  TIP3      2021            0.0000000000
     23438      2158  TIP3      OH2             5.7267145230       57.9863950694       72.6988318432  TIP3      2022            0.0000000000
     23439      2158  TIP3      H1              4.8170344322       57.7650377484       72.3970046817  TIP3      2022            0.0000000000
     23440      2158  TIP3      H2              5.5442015605       58.7950715378       73.2079426821  TIP3      2022            0.0000000000
     23441      2159  TIP3      OH2            10.6421328264       57.1709687496       76.1491018334  TIP3      2023            0.0000000000
     23442      2159  TIP3      H1             11.1398434914       56.9267532514       76.9638842065  TIP3      2023            0.0000000000
     23443      2159  TIP3      H2              9.7395028401       57.2858321183       76.5018386240  TIP3      2023            0.0000000000
     23444      2160  TIP3      OH2            13.3946456133       61.5254809378       77.5016685828  TIP3      2024            0.0000000000
     23445      2160  TIP3      H1             12.7204552503       61.3883619139       78.2183349429  TIP3      2024            0.0000000000
     23446      2160  TIP3      H2             13.4082266542       62.4996955335       77.3725847582  TIP3      2024            0.0000000000
     23447      2161  TIP3      OH2             5.8634206047       62.5842761831       74.4252413832  TIP3      2025            0.0000000000
     23448      2161  TIP3      H1              5.1970260802       62.7639423184       75.1150467620  TIP3      2025            0.0000000000
     23449      2161  TIP3      H2              6.0557494051       63.4972904776       74.1151800890  TIP3      2025            0.0000000000
     23450      2162  TIP3      OH2             6.0486740938       62.7466253373       69.0832810988  TIP3      2026            0.0000000000
     23451      2162  TIP3      H1              5.0946742634       62.5784690538       68.8702828059  TIP3      2026            0.0000000000
     23452      2162  TIP3      H2              6.4742832874       62.3465407850       68.3030189629  TIP3      2026            0.0000000000
     23453      2163  TIP3      OH2            11.9352532986       63.7702180879       68.6010322049  TIP3      2027            0.0000000000
     23454      2163  TIP3      H1             11.2832496357       64.4553965813       68.3264548721  TIP3      2027            0.0000000000
     23455      2163  TIP3      H2             12.2005690351       63.3869148064       67.7293817008  TIP3      2027            0.0000000000
     23456      2164  TIP3      OH2            10.4955598749       63.6324713493       79.7937906378  TIP3      2028            0.0000000000
     23457      2164  TIP3      H1             10.2901354987       62.9526459691       80.4630190295  TIP3      2028            0.0000000000
     23458      2164  TIP3      H2             11.4224061852       63.7918536931       80.0136008850  TIP3      2028            0.0000000000
     23459      2165  TIP3      OH2            12.1848014532       62.8337980899       71.1246323173  TIP3      2029            0.0000000000
     23460      2165  TIP3      H1             12.1237444114       63.3179528421       70.2709067415  TIP3      2029            0.0000000000
     23461      2165  TIP3      H2             12.2825463625       61.9267518706       70.8005755371  TIP3      2029            0.0000000000
     23462      2166  TIP3      OH2             3.2996011408       62.9467505969       75.7372088657  TIP3      2030            0.0000000000
     23463      2166  TIP3      H1              3.2385343192       62.9644355782       76.7049428668  TIP3      2030            0.0000000000
     23464      2166  TIP3      H2              3.0890464383       62.0128674007       75.5644151114  TIP3      2030            0.0000000000
     23465      2167  TIP3      OH2             1.7285172326       60.2761279164       69.7285645196  TIP3      2031            0.0000000000
     23466      2167  TIP3      H1              1.5343587730       59.6859360491       70.4724425006  TIP3      2031            0.0000000000
     23467      2167  TIP3      H2              1.0477793277       60.1025674080       69.0631118206  TIP3      2031            0.0000000000
     23468      2168  TIP3      OH2            11.3906408783       64.5253009195       75.6870514358  TIP3      2032            0.0000000000
     23469      2168  TIP3      H1             11.9593306796       64.1385597748       74.9834889050  TIP3      2032            0.0000000000
     23470      2168  TIP3      H2             11.0305124011       63.7276734790       76.1511759998  TIP3      2032            0.0000000000
     23471      2169  TIP3      OH2             8.7315631220       60.6506734973       70.2185435573  TIP3      2033            0.0000000000
     23472      2169  TIP3      H1              7.8521042992       60.3342086298       70.4623962862  TIP3      2033            0.0000000000
     23473      2169  TIP3      H2              9.3003156154       59.9048438551       70.5228058557  TIP3      2033            0.0000000000
     23474      2170  TIP3      OH2             3.5080459777       62.1286100122       68.6818909949  TIP3      2034            0.0000000000
     23475      2170  TIP3      H1              2.7609797426       62.7134919814       68.4209063248  TIP3      2034            0.0000000000
     23476      2170  TIP3      H2              3.0171437070       61.3148527235       68.9097993109  TIP3      2034            0.0000000000
     23477      2171  TIP3      OH2             6.6931742605       61.5764904698       66.6267768576  TIP3      2035            0.0000000000
     23478      2171  TIP3      H1              7.6404259735       61.7871718085       66.6658421829  TIP3      2035            0.0000000000
     23479      2171  TIP3      H2              6.3222195523       62.2631395074       66.0301492074  TIP3      2035            0.0000000000
     23480      2172  TIP3      OH2            12.8120268832       59.7246549145       73.0380500622  TIP3      2036            0.0000000000
     23481      2172  TIP3      H1             12.5015102870       59.5450234586       73.9578930134  TIP3      2036            0.0000000000
     23482      2172  TIP3      H2             12.7732979192       58.8586709748       72.6106258242  TIP3      2036            0.0000000000
     23483      2173  TIP3      OH2             5.3502311595       63.3153511690       64.7716493016  TIP3      2037            0.0000000000
     23484      2173  TIP3      H1              4.4996374498       62.8529987474       64.6467568266  TIP3      2037            0.0000000000
     23485      2173  TIP3      H2              5.5851655568       63.5079780823       63.8486767698  TIP3      2037            0.0000000000
     23486      2174  TIP3      OH2             9.4245813459       62.8703002689       71.7126335145  TIP3      2038            0.0000000000
     23487      2174  TIP3      H1             10.3296901343       62.7051677619       71.3899968476  TIP3      2038            0.0000000000
     23488      2174  TIP3      H2              9.0495650406       61.9794646192       71.8307993965  TIP3      2038            0.0000000000
     23489      2175  TIP3      OH2             5.5015492896       58.8637117447       68.7891653884  TIP3      2039            0.0000000000
     23490      2175  TIP3      H1              4.6982131077       58.3552939786       69.0396201775  TIP3      2039            0.0000000000
     23491      2175  TIP3      H2              5.8575564103       58.2978991366       68.0938700494  TIP3      2039            0.0000000000
     23492      2176  TIP3      OH2             8.3837327408       61.4070000764       74.3691774522  TIP3      2040            0.0000000000
     23493      2176  TIP3      H1              7.5649103369       61.9179017601       74.2265285499  TIP3      2040            0.0000000000
     23494      2176  TIP3      H2              8.8946748145       62.0514083502       74.8767751537  TIP3      2040            0.0000000000
     23495      2177  TIP3      OH2            12.8689355843       62.6651490516       66.3668748034  TIP3      2041            0.0000000000
     23496      2177  TIP3      H1             13.6742537227       62.1973019637       66.6476756459  TIP3      2041            0.0000000000
     23497      2177  TIP3      H2             13.0550510511       62.8395582715       65.4376919292  TIP3      2041            0.0000000000
     23498      2178  TIP3      OH2             1.9461158960       65.6357082317       77.4077850701  TIP3      2042            0.0000000000
     23499      2178  TIP3      H1              1.8197871741       65.0453230695       78.1822923681  TIP3      2042            0.0000000000
     23500      2178  TIP3      H2              1.0991988203       65.5380238035       76.9376011401  TIP3      2042            0.0000000000
     23501      2179  TIP3      OH2             7.7347663667       64.4109071697       79.5020666180  TIP3      2043            0.0000000000
     23502      2179  TIP3      H1              7.3409529522       64.1022840506       78.6613605234  TIP3      2043            0.0000000000
     23503      2179  TIP3      H2              8.6500166774       64.0761008083       79.4111981396  TIP3      2043            0.0000000000
     23504      2180  TIP3      OH2            17.9172470521       62.9293082300       66.6592649554  TIP3      2044            0.0000000000
     23505      2180  TIP3      H1             18.3311466901       62.3777574058       65.9751655678  TIP3      2044            0.0000000000
     23506      2180  TIP3      H2             17.9292018095       63.8281267172       66.2959959134  TIP3      2044            0.0000000000
     23507      2181  TIP3      OH2             2.4589968691       65.1738994524       64.7501167186  TIP3      2045            0.0000000000
     23508      2181  TIP3      H1              2.9761616192       64.9655418842       63.9634857870  TIP3      2045            0.0000000000
     23509      2181  TIP3      H2              1.5591796490       65.1508474178       64.4070901954  TIP3      2045            0.0000000000
     23510      2182  TIP3      OH2             2.8042699710       60.3030392935       76.7099249222  TIP3      2046            0.0000000000
     23511      2182  TIP3      H1              2.4183114648       60.9151816590       77.3745128146  TIP3      2046            0.0000000000
     23512      2182  TIP3      H2              2.3065344082       59.5032427464       76.9408051291  TIP3      2046            0.0000000000
     23513      2183  TIP3      OH2            12.0681290132       59.7250700481       75.6890082428  TIP3      2047            0.0000000000
     23514      2183  TIP3      H1             12.4861676599       60.2401701458       76.4014685361  TIP3      2047            0.0000000000
     23515      2183  TIP3      H2             11.4099839944       59.1800193605       76.1525779191  TIP3      2047            0.0000000000
     23516      2184  TIP3      OH2            12.2738882354       59.5870648046       67.2571086849  TIP3      2048            0.0000000000
     23517      2184  TIP3      H1             12.0305410611       60.5150065650       67.1045208355  TIP3      2048            0.0000000000
     23518      2184  TIP3      H2             12.8149091979       59.6713112144       68.0668921059  TIP3      2048            0.0000000000
     23519      2185  TIP3      OH2             9.3302674082       61.6433322235       67.4970933363  TIP3      2049            0.0000000000
     23520      2185  TIP3      H1              9.7273435964       62.4864227730       67.7725378366  TIP3      2049            0.0000000000
     23521      2185  TIP3      H2              8.8949664803       61.3257964724       68.3169481639  TIP3      2049            0.0000000000
     23522      2186  TIP3      OH2            10.4062837581       62.4642500893       77.2004001146  TIP3      2050            0.0000000000
     23523      2186  TIP3      H1             10.3152073008       62.5627767243       78.1748872052  TIP3      2050            0.0000000000
     23524      2186  TIP3      H2             10.7397326331       61.5573528448       77.0892576645  TIP3      2050            0.0000000000
     23525      2187  TIP3      OH2            10.1580084329       58.1202631620       68.1858581073  TIP3      2051            0.0000000000
     23526      2187  TIP3      H1              9.8840037316       58.3357956077       69.1057183009  TIP3      2051            0.0000000000
     23527      2187  TIP3      H2             10.9354239760       58.7162696489       68.0686624194  TIP3      2051            0.0000000000
     23528      2188  TIP3      OH2             5.8884948246       59.0615120154       65.3692006669  TIP3      2052            0.0000000000
     23529      2188  TIP3      H1              5.6651659482       59.9215719747       65.7499657526  TIP3      2052            0.0000000000
     23530      2188  TIP3      H2              6.8242529917       59.0052341186       65.6511707813  TIP3      2052            0.0000000000
     23531      2189  TIP3      OH2            15.8355306093       59.8839819395       77.4549404880  TIP3      2053            0.0000000000
     23532      2189  TIP3      H1             14.9423911763       60.2756250467       77.3641076449  TIP3      2053            0.0000000000
     23533      2189  TIP3      H2             16.2885653068       60.3419050446       76.7193595593  TIP3      2053            0.0000000000
     23534      2190  TIP3      OH2            15.1685033025       64.2037407956       71.3821090698  TIP3      2054            0.0000000000
     23535      2190  TIP3      H1             14.3684941033       63.7926261703       71.7335710029  TIP3      2054            0.0000000000
     23536      2190  TIP3      H2             15.8362552219       63.6859945985       71.9025138122  TIP3      2054            0.0000000000
     23537      2191  TIP3      OH2             1.9828712664       62.2042091315       62.8771484931  TIP3      2055            0.0000000000
     23538      2191  TIP3      H1              1.4357555722       63.0007719323       62.7564958875  TIP3      2055            0.0000000000
     23539      2191  TIP3      H2              1.2925672212       61.6211503198       63.2648425530  TIP3      2055            0.0000000000
     23540      2192  TIP3      OH2             3.2174939527       57.4337715009       72.1008174094  TIP3      2056            0.0000000000
     23541      2192  TIP3      H1              3.1475418670       57.3624098497       71.1264063349  TIP3      2056            0.0000000000
     23542      2192  TIP3      H2              3.0099894926       56.5155720553       72.3774316653  TIP3      2056            0.0000000000
     23543      2193  TIP3      OH2             2.4196384564       64.3938111891       79.6953900509  TIP3      2057            0.0000000000
     23544      2193  TIP3      H1              2.3649017280       63.4479853492       79.9103182984  TIP3      2057            0.0000000000
     23545      2193  TIP3      H2              2.6295886843       64.7706476217       80.5668421663  TIP3      2057            0.0000000000
     23546      2194  TIP3      OH2             6.3967798809       63.7372338768       77.2646577601  TIP3      2058            0.0000000000
     23547      2194  TIP3      H1              5.7400146980       64.4491655456       77.1727402717  TIP3      2058            0.0000000000
     23548      2194  TIP3      H2              6.9416154216       63.8951660201       76.4563559244  TIP3      2058            0.0000000000
     23549      2195  TIP3      OH2             7.1934081807       61.2455355409       78.0996114732  TIP3      2059            0.0000000000
     23550      2195  TIP3      H1              7.0679629600       60.5847978630       77.3829803971  TIP3      2059            0.0000000000
     23551      2195  TIP3      H2              6.9634700595       62.0772126877       77.6339190501  TIP3      2059            0.0000000000
     23552      2196  TIP3      OH2             7.2591996903       59.5971286297       75.9540297681  TIP3      2060            0.0000000000
     23553      2196  TIP3      H1              7.8742741962       60.0237481167       75.3175388920  TIP3      2060            0.0000000000
     23554      2196  TIP3      H2              6.4351556479       59.6414993258       75.4310039114  TIP3      2060            0.0000000000
     23555      2197  TIP3      OH2             8.4450529854       64.3377818506       75.6920648093  TIP3      2061            0.0000000000
     23556      2197  TIP3      H1              9.4072436409       64.3682437996       75.5854216819  TIP3      2061            0.0000000000
     23557      2197  TIP3      H2              8.2193957103       65.2928299990       75.6238714470  TIP3      2061            0.0000000000
     23558      2198  TIP3      OH2            13.2826828953       62.9245243722       80.9320900238  TIP3      2062            0.0000000000
     23559      2198  TIP3      H1             13.1566024927       61.9662706178       80.9970414190  TIP3      2062            0.0000000000
     23560      2198  TIP3      H2             14.2134806154       63.0079243011       81.1850830765  TIP3      2062            0.0000000000
     23561      2199  TIP3      OH2            14.6424030386       -0.3691098586       79.0141007572  TIP3      2063            0.0000000000
     23562      2199  TIP3      H1             14.4424163209        0.4553952576       78.5601441490  TIP3      2063            0.0000000000
     23563      2199  TIP3      H2             15.5898181418       -0.2405045238       79.2048247942  TIP3      2063            0.0000000000
     23564      2200  TIP3      OH2             5.1786163676       62.4699845070       80.5053416115  TIP3      2064            0.0000000000
     23565      2200  TIP3      H1              4.5241305426       61.7346482061       80.4592871174  TIP3      2064            0.0000000000
     23566      2200  TIP3      H2              5.5073875402       62.4883676525       79.5996000691  TIP3      2064            0.0000000000
     23567      2201  TIP3      OH2             7.8271110082       57.0263665879       76.5163674724  TIP3      2065            0.0000000000
     23568      2201  TIP3      H1              7.6016394285       57.9830615870       76.5155718560  TIP3      2065            0.0000000000
     23569      2201  TIP3      H2              7.1446872488       56.7072650677       75.9003921652  TIP3      2065            0.0000000000
     23570      2202  TIP3      OH2             9.1911653939       61.2615251677       80.3141759602  TIP3      2066            0.0000000000
     23571      2202  TIP3      H1              8.6054815461       61.0154768645       81.0548430979  TIP3      2066            0.0000000000
     23572      2202  TIP3      H2              8.5838342752       61.2558255765       79.5464345389  TIP3      2066            0.0000000000
     23573      2203  TIP3      OH2            11.5786097654       60.6364354714       79.2359626414  TIP3      2067            0.0000000000
     23574      2203  TIP3      H1             10.6615355212       60.7407309277       79.5630543672  TIP3      2067            0.0000000000
     23575      2203  TIP3      H2             11.9398994299       59.9843761380       79.8844805176  TIP3      2067            0.0000000000
     23576      2204  TIP3      OH2            12.9292031270       59.0919013713       81.0157881104  TIP3      2068            0.0000000000
     23577      2204  TIP3      H1             13.3304160990       58.1998353034       81.0646578784  TIP3      2068            0.0000000000
     23578      2204  TIP3      H2             13.0289047356       59.4351012997       81.9289298881  TIP3      2068            0.0000000000
     23579      2205  TIP3      OH2             3.2537348403       60.3941201733       80.3473751432  TIP3      2069            0.0000000000
     23580      2205  TIP3      H1              3.0996458534       59.6093717364       79.7871501343  TIP3      2069            0.0000000000
     23581      2205  TIP3      H2              2.9713011140       60.0104220242       81.2204788687  TIP3      2069            0.0000000000
     23582      2206  TIP3      OH2             7.4680767985       56.2674956830       79.3845770189  TIP3      2070            0.0000000000
     23583      2206  TIP3      H1              8.1712224172       55.5907540405       79.4072443646  TIP3      2070            0.0000000000
     23584      2206  TIP3      H2              7.3399585551       56.3069068503       78.4205959771  TIP3      2070            0.0000000000
     23585      2207  TIP3      OH2             8.8769538158       57.8816464047       81.1155534733  TIP3      2071            0.0000000000
     23586      2207  TIP3      H1              8.2825152288       57.2592476170       80.6409347742  TIP3      2071            0.0000000000
     23587      2207  TIP3      H2              8.2315867340       58.5767301053       81.3389698219  TIP3      2071            0.0000000000
     23588      2208  TIP3      OH2            18.0999713608       65.8317922935       68.5592836049  TIP3      2072            0.0000000000
     23589      2208  TIP3      H1             17.5906092442       64.9823959768       68.5227894456  TIP3      2072            0.0000000000
     23590      2208  TIP3      H2             18.5651991814       65.7058926641       69.4157010957  TIP3      2072            0.0000000000
     23591      2209  TIP3      OH2            16.4251753399       63.8923596355       69.1075546306  TIP3      2073            0.0000000000
     23592      2209  TIP3      H1             16.1028155267       63.0268330854       68.8016495884  TIP3      2073            0.0000000000
     23593      2209  TIP3      H2             16.0307858927       63.9496338563       70.0120987984  TIP3      2073            0.0000000000
     23594      2210  TIP3      OH2            18.4256731015       63.2814950123       80.2712145058  TIP3      2074            0.0000000000
     23595      2210  TIP3      H1             17.7342627312       63.4519026246       79.6029529562  TIP3      2074            0.0000000000
     23596      2210  TIP3      H2             18.9651309900       62.6381032545       79.7651750205  TIP3      2074            0.0000000000
     23597      2211  TIP3      OH2            15.1609907889       61.9001497509       67.8119090166  TIP3      2075            0.0000000000
     23598      2211  TIP3      H1             15.5132739211       60.9941328364       67.9945975777  TIP3      2075            0.0000000000
     23599      2211  TIP3      H2             15.8822980171       62.2139107059       67.2367963865  TIP3      2075            0.0000000000
     23600      2212  TIP3      OH2            16.5714530261       62.6041037819       72.9686918594  TIP3      2076            0.0000000000
     23601      2212  TIP3      H1             17.5548084196       62.6016112562       73.0912788196  TIP3      2076            0.0000000000
     23602      2212  TIP3      H2             16.2874048371       62.6745595794       73.9029603839  TIP3      2076            0.0000000000
     23603      2213  TIP3      OH2            16.1642785957       63.0481215135       75.6114429628  TIP3      2077            0.0000000000
     23604      2213  TIP3      H1             15.2692426615       63.3762443406       75.8069368138  TIP3      2077            0.0000000000
     23605      2213  TIP3      H2             16.6919411773       63.8871709859       75.5595978331  TIP3      2077            0.0000000000
     23606      2214  TIP3      OH2             1.6751008723       61.7961352880       78.7137271150  TIP3      2078            0.0000000000
     23607      2214  TIP3      H1              2.1729180985       61.2766697693       79.3851313348  TIP3      2078            0.0000000000
     23608      2214  TIP3      H2              0.7567997227       61.6615050087       79.0332091485  TIP3      2078            0.0000000000
     23609      2215  TIP3      OH2            18.6634257137       57.4703215425       80.7136723645  TIP3      2079            0.0000000000
     23610      2215  TIP3      H1             19.0809193010       56.7158139869       80.2375167406  TIP3      2079            0.0000000000
     23611      2215  TIP3      H2             18.6716109958       58.1812640858       80.0389472439  TIP3      2079            0.0000000000
     23612      2216  TIP3      OH2            16.0074495494       59.4281576038       67.8943827791  TIP3      2080            0.0000000000
     23613      2216  TIP3      H1             16.3836176471       58.9122787218       68.6296060859  TIP3      2080            0.0000000000
     23614      2216  TIP3      H2             15.6087153244       58.7423176084       67.3259988802  TIP3      2080            0.0000000000
     23615      2217  TIP3      OH2             2.0681033409       59.7892778225       72.7538504502  TIP3      2081            0.0000000000
     23616      2217  TIP3      H1              2.5117174856       58.9238438418       72.5951333944  TIP3      2081            0.0000000000
     23617      2217  TIP3      H2              2.7845132301       60.4378544962       72.6267672972  TIP3      2081            0.0000000000
     23618      2218  TIP3      OH2             0.3770739416       63.3204312146       73.4179952673  TIP3      2082            0.0000000000
     23619      2218  TIP3      H1              0.9902057185       62.9816044114       72.7252124664  TIP3      2082            0.0000000000
     23620      2218  TIP3      H2              0.7376164462       64.2094896592       73.5556803789  TIP3      2082            0.0000000000
     23621      2219  TIP3      OH2            18.0653781592       59.7008849761       79.3039771663  TIP3      2083            0.0000000000
     23622      2219  TIP3      H1             17.3396706678       59.8320038785       79.9531403717  TIP3      2083            0.0000000000
     23623      2219  TIP3      H2             17.5684070714       59.3567060973       78.5445465609  TIP3      2083            0.0000000000
     23624      2220  TIP3      OH2             0.8056450227       59.1932686221       66.9020879885  TIP3      2084            0.0000000000
     23625      2220  TIP3      H1             -0.1366034913       58.9201684256       66.9126090041  TIP3      2084            0.0000000000
     23626      2220  TIP3      H2              0.9110315882       59.4411578751       65.9658353477  TIP3      2084            0.0000000000
     23627      2221  TIP3      OH2             0.4171462351       57.6818271212       75.2799084949  TIP3      2085            0.0000000000
     23628      2221  TIP3      H1             -0.4660300617       57.4534377160       75.6432535104  TIP3      2085            0.0000000000
     23629      2221  TIP3      H2              0.2072299457       58.3816538660       74.6386325976  TIP3      2085            0.0000000000
     23630      2222  TIP3      OH2            17.0745614483       56.8422781613       77.3031036287  TIP3      2086            0.0000000000
     23631      2222  TIP3      H1             16.3128832470       57.2261661648       76.8393968341  TIP3      2086            0.0000000000
     23632      2222  TIP3      H2             17.2338184003       55.9830552367       76.8618876686  TIP3      2086            0.0000000000
     23633      2223  TIP3      OH2             9.8965838591       58.3745878318       70.7777515356  TIP3      2087            0.0000000000
     23634      2223  TIP3      H1              9.2528898223       57.9221914597       71.3753414635  TIP3      2087            0.0000000000
     23635      2223  TIP3      H2             10.7317881364       58.0029742708       71.0834503150  TIP3      2087            0.0000000000
     23636      2224  TIP3      OH2            15.6997064995       56.8697534500       71.4563755262  TIP3      2088            0.0000000000
     23637      2224  TIP3      H1             16.2321490918       57.4873993177       70.9033830901  TIP3      2088            0.0000000000
     23638      2224  TIP3      H2             14.8021626438       56.9706439089       71.0505394823  TIP3      2088            0.0000000000
     23639      2225  TIP3      OH2            17.5418847710       58.0999120778       69.8025820016  TIP3      2089            0.0000000000
     23640      2225  TIP3      H1             18.1179359688       57.3848941199       69.4449908748  TIP3      2089            0.0000000000
     23641      2225  TIP3      H2             18.2181778508       58.7631264183       70.0910313813  TIP3      2089            0.0000000000
     23642      2226  TIP3      OH2             3.3689137776       57.2749311117       69.3592393181  TIP3      2090            0.0000000000
     23643      2226  TIP3      H1              2.5285025976       57.2657563676       68.8594431365  TIP3      2090            0.0000000000
     23644      2226  TIP3      H2              3.5842642436       56.3120950270       69.3863892165  TIP3      2090            0.0000000000
     23645      2227  TIP3      OH2             1.5808908698       56.5911524540       64.9971642361  TIP3      2091            0.0000000000
     23646      2227  TIP3      H1              2.0127375776       57.3426746823       64.5493950297  TIP3      2091            0.0000000000
     23647      2227  TIP3      H2              1.0946392442       57.0206508082       65.7065567126  TIP3      2091            0.0000000000
     23648      2228  TIP3      OH2             7.5257730576       56.1813071922       69.2092238339  TIP3      2092            0.0000000000
     23649      2228  TIP3      H1              8.3835403833       56.4296746721       68.8375071212  TIP3      2092            0.0000000000
     23650      2228  TIP3      H2              7.4693584383       56.7396550817       69.9915347669  TIP3      2092            0.0000000000
     23651      2229  TIP3      OH2            13.1847468429       56.9411643896       70.5155651506  TIP3      2093            0.0000000000
     23652      2229  TIP3      H1             12.7837335375       56.9428748266       69.6364225995  TIP3      2093            0.0000000000
     23653      2229  TIP3      H2             12.8317722565       56.0916218493       70.8676892196  TIP3      2093            0.0000000000
     23654      2230  TIP3      OH2            14.3233165783       57.4629140226       66.5246723427  TIP3      2094            0.0000000000
     23655      2230  TIP3      H1             13.4817209315       57.9571935834       66.5565745443  TIP3      2094            0.0000000000
     23656      2230  TIP3      H2             14.0478974105       56.5491371298       66.8198049543  TIP3      2094            0.0000000000
     23657      2231  TIP3      OH2             3.6370334092       58.3152764113       63.5616709749  TIP3      2095            0.0000000000
     23658      2231  TIP3      H1              4.3344776532       57.9436159588       63.0044623366  TIP3      2095            0.0000000000
     23659      2231  TIP3      H2              4.2119728685       58.8127994452       64.1729498944  TIP3      2095            0.0000000000
     23660      2232  TIP3      OH2             8.5864539917       59.1816853631       66.2691476354  TIP3      2096            0.0000000000
     23661      2232  TIP3      H1              9.1631161597       58.7060464101       66.8947805043  TIP3      2096            0.0000000000
     23662      2232  TIP3      H2              8.9709449321       60.0716176027       66.3040093230  TIP3      2096            0.0000000000
     23663      2233  TIP3      OH2             2.2941877042       57.8313505937       78.6710796165  TIP3      2097            0.0000000000
     23664      2233  TIP3      H1              1.6557121922       57.1013928234       78.6389689879  TIP3      2097            0.0000000000
     23665      2233  TIP3      H2              3.0929197815       57.3527680220       79.0043854700  TIP3      2097            0.0000000000
     23666      2234  TIP3      OH2             4.2703531002       56.2251994695       79.5921467198  TIP3      2098            0.0000000000
     23667      2234  TIP3      H1              5.1964371650       56.4303740330       79.8093727606  TIP3      2098            0.0000000000
     23668      2234  TIP3      H2              4.0673585070       55.6778551488       80.3813183602  TIP3      2098            0.0000000000
     23669      2235  TIP3      OH2            13.3460870483       56.3771962987       80.8881775147  TIP3      2099            0.0000000000
     23670      2235  TIP3      H1             13.4532480594       55.9957686669       81.7839273615  TIP3      2099            0.0000000000
     23671      2235  TIP3      H2             14.2212696172       56.1702287179       80.5039590702  TIP3      2099            0.0000000000
     23672      2236  TIP3      OH2            30.1860216945       65.1598853038       72.0029208685  TIP3      2100            0.0000000000
     23673      2236  TIP3      H1             30.5019143226       65.0577288467       72.9192430360  TIP3      2100            0.0000000000
     23674      2236  TIP3      H2             29.3751857590       64.6151942362       72.0377668958  TIP3      2100            0.0000000000
     23675      2237  TIP3      OH2            21.6797433868       65.4225822084       73.9830660488  TIP3      2101            0.0000000000
     23676      2237  TIP3      H1             21.3997061679       64.7085817354       74.5808898676  TIP3      2101            0.0000000000
     23677      2237  TIP3      H2             22.4104953950       65.8045432818       74.4991486439  TIP3      2101            0.0000000000
     23678      2238  TIP3      OH2            20.0724901753       63.7753604969       68.2530851699  TIP3      2102            0.0000000000
     23679      2238  TIP3      H1             19.6499775420       64.2828464727       68.9637210803  TIP3      2102            0.0000000000
     23680      2238  TIP3      H2             19.3232846202       63.2605057130       67.8914087559  TIP3      2102            0.0000000000
     23681      2239  TIP3      OH2            19.8741719064       65.3221460159       70.7238927259  TIP3      2103            0.0000000000
     23682      2239  TIP3      H1             20.4900553336       64.6616970800       71.1174352058  TIP3      2103            0.0000000000
     23683      2239  TIP3      H2             20.5028155611       66.0290050944       70.5078955673  TIP3      2103            0.0000000000
     23684      2240  TIP3      OH2            36.8288558723       59.8874945225       73.2143095406  TIP3      2104            0.0000000000
     23685      2240  TIP3      H1             36.9415153362       60.3234601833       74.0858985189  TIP3      2104            0.0000000000
     23686      2240  TIP3      H2             37.5934824243       60.2271700729       72.7124268171  TIP3      2104            0.0000000000
     23687      2241  TIP3      OH2            31.1759192058       62.7607245393       73.6301583464  TIP3      2105            0.0000000000
     23688      2241  TIP3      H1             31.4900978507       61.8482610078       73.7742625939  TIP3      2105            0.0000000000
     23689      2241  TIP3      H2             31.3413455711       62.8658344466       72.6647735842  TIP3      2105            0.0000000000
     23690      2242  TIP3      OH2            24.5280063891       60.5235014363       70.6097802453  TIP3      2106            0.0000000000
     23691      2242  TIP3      H1             24.5481238778       61.1643947697       69.8814293864  TIP3      2106            0.0000000000
     23692      2242  TIP3      H2             24.2589340937       59.7315871780       70.0774331450  TIP3      2106            0.0000000000
     23693      2243  TIP3      OH2            32.0028690345       60.6706187604       69.7306659954  TIP3      2107            0.0000000000
     23694      2243  TIP3      H1             32.6012676147       60.2709458036       70.4008805843  TIP3      2107            0.0000000000
     23695      2243  TIP3      H2             32.6265283165       61.2148371065       69.2236229718  TIP3      2107            0.0000000000
     23696      2244  TIP3      OH2            21.3420824274       63.1468806974       71.4246321141  TIP3      2108            0.0000000000
     23697      2244  TIP3      H1             21.7877605407       62.4973220695       72.0085241694  TIP3      2108            0.0000000000
     23698      2244  TIP3      H2             21.5576966782       62.7764736672       70.5457055858  TIP3      2108            0.0000000000
     23699      2245  TIP3      OH2            25.7782790550       64.3166380241       71.1085754178  TIP3      2109            0.0000000000
     23700      2245  TIP3      H1             25.7663280294       65.2143877588       70.6908219169  TIP3      2109            0.0000000000
     23701      2245  TIP3      H2             25.3448577353       63.8617466768       70.3416083583  TIP3      2109            0.0000000000
     23702      2246  TIP3      OH2            36.8125329573       61.1434407589       75.8089031069  TIP3      2110            0.0000000000
     23703      2246  TIP3      H1             36.2692750844       61.9604003441       75.7410148532  TIP3      2110            0.0000000000
     23704      2246  TIP3      H2             37.3236164771       61.3367640737       76.6136603074  TIP3      2110            0.0000000000
     23705      2247  TIP3      OH2            23.5798162137       59.7717111179       74.8256663920  TIP3      2111            0.0000000000
     23706      2247  TIP3      H1             23.1220112968       60.1854196650       74.0711217513  TIP3      2111            0.0000000000
     23707      2247  TIP3      H2             22.9195347795       59.8851981427       75.5373618646  TIP3      2111            0.0000000000
     23708      2248  TIP3      OH2            34.3020730753       60.3901046833       71.3617584256  TIP3      2112            0.0000000000
     23709      2248  TIP3      H1             35.1547887644       59.9899481123       71.1370494484  TIP3      2112            0.0000000000
     23710      2248  TIP3      H2             34.5538967311       60.8877825824       72.1728212363  TIP3      2112            0.0000000000
     23711      2249  TIP3      OH2            22.9206731546       61.3863686278       72.6122440241  TIP3      2113            0.0000000000
     23712      2249  TIP3      H1             23.5026621415       61.9407740908       73.1866543523  TIP3      2113            0.0000000000
     23713      2249  TIP3      H2             23.5507319268       61.0705831822       71.9182849528  TIP3      2113            0.0000000000
     23714      2250  TIP3      OH2            34.3907355733       58.8435489952       74.1125496380  TIP3      2114            0.0000000000
     23715      2250  TIP3      H1             33.6479213873       59.1185978725       73.5367335974  TIP3      2114            0.0000000000
     23716      2250  TIP3      H2             35.1593765145       59.1143466855       73.5769563067  TIP3      2114            0.0000000000
     23717      2251  TIP3      OH2            26.8008193221       56.8842979686       72.1606353037  TIP3      2115            0.0000000000
     23718      2251  TIP3      H1             26.4760766738       56.0001127807       72.3884745620  TIP3      2115            0.0000000000
     23719      2251  TIP3      H2             26.0295577515       57.4252553239       72.4737270520  TIP3      2115            0.0000000000
     23720      2252  TIP3      OH2            29.3530729586       65.3739584327       66.7230126392  TIP3      2116            0.0000000000
     23721      2252  TIP3      H1             28.8021851706       66.0861445443       67.0856505768  TIP3      2116            0.0000000000
     23722      2252  TIP3      H2             30.1033600744       65.8611849030       66.3654113001  TIP3      2116            0.0000000000
     23723      2253  TIP3      OH2            36.3851391118       65.2941746333       75.0356998840  TIP3      2117            0.0000000000
     23724      2253  TIP3      H1             36.3466117532       65.4824647511       74.0783644175  TIP3      2117            0.0000000000
     23725      2253  TIP3      H2             37.2745360228       65.6753665468       75.2217219372  TIP3      2117            0.0000000000
     23726      2254  TIP3      OH2            33.0849088650       65.4084111170       68.3170514334  TIP3      2118            0.0000000000
     23727      2254  TIP3      H1             32.7081049715       65.7232570383       69.1756998256  TIP3      2118            0.0000000000
     23728      2254  TIP3      H2             33.9997050185       65.1940368821       68.5655139321  TIP3      2118            0.0000000000
     23729      2255  TIP3      OH2            32.5598360483       64.0101377666       76.7713896192  TIP3      2119            0.0000000000
     23730      2255  TIP3      H1             32.7300713291       64.6908846429       77.4652869989  TIP3      2119            0.0000000000
     23731      2255  TIP3      H2             31.8434005855       64.3838716209       76.2294760064  TIP3      2119            0.0000000000
     23732      2256  TIP3      OH2            24.8794839991       65.0791679515       73.5256985713  TIP3      2120            0.0000000000
     23733      2256  TIP3      H1             25.2212483649       64.7756812982       72.6521407531  TIP3      2120            0.0000000000
     23734      2256  TIP3      H2             24.8640421452       66.0478750650       73.3474967263  TIP3      2120            0.0000000000
     23735      2257  TIP3      OH2            32.4790783254       64.9708429210       65.6708812657  TIP3      2121            0.0000000000
     23736      2257  TIP3      H1             32.7118089197       65.0289434038       66.6320811540  TIP3      2121            0.0000000000
     23737      2257  TIP3      H2             32.7395388282       65.8513829990       65.3626089086  TIP3      2121            0.0000000000
     23738      2258  TIP3      OH2            23.0526466409       66.1798831457       76.5582489549  TIP3      2122            0.0000000000
     23739      2258  TIP3      H1             22.8074811126       66.8918605408       77.1712781377  TIP3      2122            0.0000000000
     23740      2258  TIP3      H2             22.4882597069       65.4828112374       76.9110746624  TIP3      2122            0.0000000000
     23741      2259  TIP3      OH2            35.4561745089       56.4239912684       65.9649036817  TIP3      2123            0.0000000000
     23742      2259  TIP3      H1             34.5292782638       56.6759281583       66.1492553616  TIP3      2123            0.0000000000
     23743      2259  TIP3      H2             35.6293378744       56.8761083117       65.1275200335  TIP3      2123            0.0000000000
     23744      2260  TIP3      OH2            23.4650807305       65.7461172295       67.6280409969  TIP3      2124            0.0000000000
     23745      2260  TIP3      H1             23.9487848101       66.2797946996       66.9740073291  TIP3      2124            0.0000000000
     23746      2260  TIP3      H2             23.4964865306       64.8537055773       67.2614821302  TIP3      2124            0.0000000000
     23747      2261  TIP3      OH2            34.4683134534       62.2937264336       79.0181412150  TIP3      2125            0.0000000000
     23748      2261  TIP3      H1             33.7834990402       62.6067334027       78.4041968613  TIP3      2125            0.0000000000
     23749      2261  TIP3      H2             34.7015372442       61.4397157635       78.6191704381  TIP3      2125            0.0000000000
     23750      2262  TIP3      OH2            24.6872205863       58.1645971335       73.1008533319  TIP3      2126            0.0000000000
     23751      2262  TIP3      H1             23.8697029758       57.8443568577       72.6581720140  TIP3      2126            0.0000000000
     23752      2262  TIP3      H2             24.3032691459       58.6709165359       73.8465858217  TIP3      2126            0.0000000000
     23753      2263  TIP3      OH2            29.7799654648       57.4291730135       76.2404226159  TIP3      2127            0.0000000000
     23754      2263  TIP3      H1             30.2376526934       57.0444333527       77.0290244728  TIP3      2127            0.0000000000
     23755      2263  TIP3      H2             28.8411427178       57.3424770938       76.5069572675  TIP3      2127            0.0000000000
     23756      2264  TIP3      OH2            31.9905110089       61.3713099299       77.0534085290  TIP3      2128            0.0000000000
     23757      2264  TIP3      H1             31.5015814370       61.1398884102       77.8822348878  TIP3      2128            0.0000000000
     23758      2264  TIP3      H2             32.0439475568       62.3474445154       77.1002906471  TIP3      2128            0.0000000000
     23759      2265  TIP3      OH2            24.5714006468       62.5945378261       74.3278279150  TIP3      2129            0.0000000000
     23760      2265  TIP3      H1             23.8886869555       62.6536400679       75.0254071126  TIP3      2129            0.0000000000
     23761      2265  TIP3      H2             24.6656935869       63.5620006114       74.1332434984  TIP3      2129            0.0000000000
     23762      2266  TIP3      OH2            24.4682239184       63.0007335772       69.2857810552  TIP3      2130            0.0000000000
     23763      2266  TIP3      H1             23.5488719014       62.6850462791       69.1475746798  TIP3      2130            0.0000000000
     23764      2266  TIP3      H2             24.9242982049       62.7589387660       68.4402049413  TIP3      2130            0.0000000000
     23765      2267  TIP3      OH2            30.1124210395       63.4770058657       68.4109232731  TIP3      2131            0.0000000000
     23766      2267  TIP3      H1             29.8732068573       64.2969694994       67.9142770772  TIP3      2131            0.0000000000
     23767      2267  TIP3      H2             30.6708177399       63.0473104268       67.7261879435  TIP3      2131            0.0000000000
     23768      2268  TIP3      OH2            29.3756544374       63.4275893107       79.6243547399  TIP3      2132            0.0000000000
     23769      2268  TIP3      H1             29.1782035131       62.6590092926       80.1924373170  TIP3      2132            0.0000000000
     23770      2268  TIP3      H2             30.2170978597       63.7262494444       80.0062736755  TIP3      2132            0.0000000000
     23771      2269  TIP3      OH2            31.6772297690       63.0574204402       70.9187053312  TIP3      2133            0.0000000000
     23772      2269  TIP3      H1             31.3077627725       63.4872907094       70.1227215639  TIP3      2133            0.0000000000
     23773      2269  TIP3      H2             31.6898152847       62.1260525226       70.6118124551  TIP3      2133            0.0000000000
     23774      2270  TIP3      OH2            22.2012529752       62.9435607456       75.7364281346  TIP3      2134            0.0000000000
     23775      2270  TIP3      H1             22.5772730014       63.2039443695       76.5793786497  TIP3      2134            0.0000000000
     23776      2270  TIP3      H2             21.9764551701       62.0178483831       75.9624668306  TIP3      2134            0.0000000000
     23777      2271  TIP3      OH2            19.3039765497       60.0575125396       70.1175244897  TIP3      2135            0.0000000000
     23778      2271  TIP3      H1             20.1036422731       59.9739834709       70.6556526280  TIP3      2135            0.0000000000
     23779      2271  TIP3      H2             19.6371705148       60.0323321396       69.1986623212  TIP3      2135            0.0000000000
     23780      2272  TIP3      OH2            20.4139678066       61.2524127355       65.2756106696  TIP3      2136            0.0000000000
     23781      2272  TIP3      H1             20.7342305122       60.3912477854       64.9571507898  TIP3      2136            0.0000000000
     23782      2272  TIP3      H2             20.9307098342       61.8446429503       64.6941895383  TIP3      2136            0.0000000000
     23783      2273  TIP3      OH2            30.0570280635       64.4898901753       75.5660165615  TIP3      2137            0.0000000000
     23784      2273  TIP3      H1             30.6221655645       64.0303443123       74.9098803675  TIP3      2137            0.0000000000
     23785      2273  TIP3      H2             29.7395422691       63.7398735249       76.1320127614  TIP3      2137            0.0000000000
     23786      2274  TIP3      OH2            27.3492760058       60.1879779976       70.1705155590  TIP3      2138            0.0000000000
     23787      2274  TIP3      H1             26.6037123448       59.6533662004       69.8517219779  TIP3      2138            0.0000000000
     23788      2274  TIP3      H2             27.9355390544       59.4794548340       70.5078400291  TIP3      2138            0.0000000000
     23789      2275  TIP3      OH2            22.0362486458       61.7648842410       69.0003658341  TIP3      2139            0.0000000000
     23790      2275  TIP3      H1             21.3658521907       62.2321424267       68.4704086660  TIP3      2139            0.0000000000
     23791      2275  TIP3      H2             22.0637732922       60.9080191664       68.5336671427  TIP3      2139            0.0000000000
     23792      2276  TIP3      OH2            25.6117519496       62.2500582981       67.0050333816  TIP3      2140            0.0000000000
     23793      2276  TIP3      H1             26.5724455091       62.2190576427       66.9128263911  TIP3      2140            0.0000000000
     23794      2276  TIP3      H2             25.2924246122       62.6624364302       66.1617967652  TIP3      2140            0.0000000000
     23795      2277  TIP3      OH2            31.8798879800       59.5272786355       73.1685587169  TIP3      2141            0.0000000000
     23796      2277  TIP3      H1             31.2785582545       59.1917502922       73.8596675325  TIP3      2141            0.0000000000
     23797      2277  TIP3      H2             31.7176798676       58.9699249059       72.3912990660  TIP3      2141            0.0000000000
     23798      2278  TIP3      OH2            24.5828962560       63.4283170704       64.8150356953  TIP3      2142            0.0000000000
     23799      2278  TIP3      H1             23.7591567368       63.7098236871       64.3930353535  TIP3      2142            0.0000000000
     23800      2278  TIP3      H2             25.2535896344       63.6958588594       64.1603103891  TIP3      2142            0.0000000000
     23801      2279  TIP3      OH2            28.7911377139       62.7331190211       71.7869916860  TIP3      2143            0.0000000000
     23802      2279  TIP3      H1             29.2781212586       62.8384463775       70.9553094110  TIP3      2143            0.0000000000
     23803      2279  TIP3      H2             29.4819013173       62.5372573605       72.4410967948  TIP3      2143            0.0000000000
     23804      2280  TIP3      OH2            23.4120470098       59.0059321572       68.6951257075  TIP3      2144            0.0000000000
     23805      2280  TIP3      H1             22.7949009315       58.3227185102       69.0326056829  TIP3      2144            0.0000000000
     23806      2280  TIP3      H2             23.6981780151       58.6594339989       67.8355219948  TIP3      2144            0.0000000000
     23807      2281  TIP3      OH2            27.1325446210       61.4395629541       74.4091667335  TIP3      2145            0.0000000000
     23808      2281  TIP3      H1             26.4796250345       62.0403328797       74.8129860635  TIP3      2145            0.0000000000
     23809      2281  TIP3      H2             27.9577126068       61.7465940782       74.8242199203  TIP3      2145            0.0000000000
     23810      2282  TIP3      OH2            31.5809578567       62.4607523838       66.4094413896  TIP3      2146            0.0000000000
     23811      2282  TIP3      H1             32.4737222742       62.3902288849       66.7907326020  TIP3      2146            0.0000000000
     23812      2282  TIP3      H2             31.7229031496       63.1357526925       65.7066139059  TIP3      2146            0.0000000000
     23813      2283  TIP3      OH2            19.8022378812       65.2463550323       76.9717258826  TIP3      2147            0.0000000000
     23814      2283  TIP3      H1             19.5418560460       64.8576674022       77.8174920981  TIP3      2147            0.0000000000
     23815      2283  TIP3      H2             19.1129446481       65.9045177729       76.7708270942  TIP3      2147            0.0000000000
     23816      2284  TIP3      OH2            26.6133253956       64.5134733577       79.5121658105  TIP3      2148            0.0000000000
     23817      2284  TIP3      H1             26.2232388239       64.1380812651       78.7004004798  TIP3      2148            0.0000000000
     23818      2284  TIP3      H2             27.4339875754       63.9881274851       79.5757613593  TIP3      2148            0.0000000000
     23819      2285  TIP3      OH2            36.8727156232       62.7972401515       66.2089425331  TIP3      2149            0.0000000000
     23820      2285  TIP3      H1             36.2591498726       63.2277178204       65.6036620298  TIP3      2149            0.0000000000
     23821      2285  TIP3      H2             37.3782817893       63.5508684552       66.5505301316  TIP3      2149            0.0000000000
     23822      2286  TIP3      OH2            21.6137564562       60.4814509622       76.5624375387  TIP3      2150            0.0000000000
     23823      2286  TIP3      H1             20.7501157303       60.8712575565       76.3621545969  TIP3      2150            0.0000000000
     23824      2286  TIP3      H2             21.4392213333       60.0591485135       77.4213171005  TIP3      2150            0.0000000000
     23825      2287  TIP3      OH2            30.0035517100       60.3077582304       75.5409786332  TIP3      2151            0.0000000000
     23826      2287  TIP3      H1             30.8353345749       60.5980211591       75.9649612261  TIP3      2151            0.0000000000
     23827      2287  TIP3      H2             29.9003551947       59.4039345580       75.8807110309  TIP3      2151            0.0000000000
     23828      2288  TIP3      OH2            31.1176185345       59.6596728951       67.2190201665  TIP3      2152            0.0000000000
     23829      2288  TIP3      H1             30.9087861938       60.5886373936       66.9737317571  TIP3      2152            0.0000000000
     23830      2288  TIP3      H2             31.6996326533       59.8016293942       67.9857431705  TIP3      2152            0.0000000000
     23831      2289  TIP3      OH2            28.3936412756       61.3691231039       67.9565359543  TIP3      2153            0.0000000000
     23832      2289  TIP3      H1             28.7811138545       62.2601882107       68.0838333040  TIP3      2153            0.0000000000
     23833      2289  TIP3      H2             28.1425983005       61.1162043370       68.8721837335  TIP3      2153            0.0000000000
     23834      2290  TIP3      OH2            28.9441369836       62.5287550730       77.1197413864  TIP3      2154            0.0000000000
     23835      2290  TIP3      H1             28.9686513977       62.7913635810       78.0693696496  TIP3      2154            0.0000000000
     23836      2290  TIP3      H2             29.4270322448       61.6807559079       77.1147804345  TIP3      2154            0.0000000000
     23837      2291  TIP3      OH2            29.2973793232       57.9307476812       68.2173553959  TIP3      2155            0.0000000000
     23838      2291  TIP3      H1             29.0921090589       58.0146638718       69.1743710071  TIP3      2155            0.0000000000
     23839      2291  TIP3      H2             29.8260594379       58.7525366869       68.0580940041  TIP3      2155            0.0000000000
     23840      2292  TIP3      OH2            25.2851214989       59.5226000456       65.8260859615  TIP3      2156            0.0000000000
     23841      2292  TIP3      H1             24.9949258285       60.3680260170       66.1987506906  TIP3      2156            0.0000000000
     23842      2292  TIP3      H2             26.2025475929       59.4458686822       66.1478338028  TIP3      2156            0.0000000000
     23843      2293  TIP3      OH2            34.9986318753       59.8316698823       77.2575970365  TIP3      2157            0.0000000000
     23844      2293  TIP3      H1             34.1240486502       60.1036905157       76.9505243030  TIP3      2157            0.0000000000
     23845      2293  TIP3      H2             35.5396432637       60.0633697143       76.4676941597  TIP3      2157            0.0000000000
     23846      2294  TIP3      OH2            34.0982869579       64.2538263583       71.4106160029  TIP3      2158            0.0000000000
     23847      2294  TIP3      H1             33.1494332506       64.0179622840       71.3618452379  TIP3      2158            0.0000000000
     23848      2294  TIP3      H2             34.4235121125       63.5397288134       72.0057640192  TIP3      2158            0.0000000000
     23849      2295  TIP3      OH2            21.4380603287       63.3076484206       63.1278131190  TIP3      2159            0.0000000000
     23850      2295  TIP3      H1             22.1288630412       63.9459745191       62.8193235391  TIP3      2159            0.0000000000
     23851      2295  TIP3      H2             20.7096375972       63.7978648440       62.7270794604  TIP3      2159            0.0000000000
     23852      2296  TIP3      OH2            22.2299212896       57.3175871439       72.4543911090  TIP3      2160            0.0000000000
     23853      2296  TIP3      H1             22.0559644940       57.3049278749       71.4852188941  TIP3      2160            0.0000000000
     23854      2296  TIP3      H2             21.9258697559       56.4137286509       72.6805447534  TIP3      2160            0.0000000000
     23855      2297  TIP3      OH2            21.6677525797       64.4301082236       79.8552211255  TIP3      2161            0.0000000000
     23856      2297  TIP3      H1             21.4717323089       63.4880059485       80.0004643005  TIP3      2161            0.0000000000
     23857      2297  TIP3      H2             21.6112590450       64.7677800635       80.7803195283  TIP3      2161            0.0000000000
     23858      2298  TIP3      OH2            25.3609112664       63.6742204538       77.1383562811  TIP3      2162            0.0000000000
     23859      2298  TIP3      H1             24.8350935759       64.4820376737       77.0962390198  TIP3      2162            0.0000000000
     23860      2298  TIP3      H2             25.9822936986       63.8395435783       76.3881350096  TIP3      2162            0.0000000000
     23861      2299  TIP3      OH2            26.9806933328       64.4447543568       63.3828816020  TIP3      2163            0.0000000000
     23862      2299  TIP3      H1             26.6539789434       65.3602362638       63.4024290148  TIP3      2163            0.0000000000
     23863      2299  TIP3      H2             27.9456100430       64.5462520036       63.3076014079  TIP3      2163            0.0000000000
     23864      2300  TIP3      OH2            25.9906340899       61.3701554932       78.3747532274  TIP3      2164            0.0000000000
     23865      2300  TIP3      H1             26.2787790954       60.7484378929       77.6727075967  TIP3      2164            0.0000000000
     23866      2300  TIP3      H2             25.7405214890       62.1674822957       77.8530050255  TIP3      2164            0.0000000000
     23867      2301  TIP3      OH2            26.2582812636       59.5980352121       76.0813959689  TIP3      2165            0.0000000000
     23868      2301  TIP3      H1             26.6957571937       60.0506303908       75.3215838505  TIP3      2165            0.0000000000
     23869      2301  TIP3      H2             25.3165187870       59.6971873224       75.8301382200  TIP3      2165            0.0000000000
     23870      2302  TIP3      OH2            27.2772187957       64.4329572336       75.3556857663  TIP3      2166            0.0000000000
     23871      2302  TIP3      H1             28.2298786589       64.3971930617       75.5475658930  TIP3      2166            0.0000000000
     23872      2302  TIP3      H2             27.1100048802       65.3863160064       75.4749097414  TIP3      2166            0.0000000000
     23873      2303  TIP3      OH2            32.2368693574       62.9925493342       80.9464856213  TIP3      2167            0.0000000000
     23874      2303  TIP3      H1             31.9674119505       62.1244361308       80.6144943378  TIP3      2167            0.0000000000
     23875      2303  TIP3      H2             33.1996882051       62.8792215694       81.0008726394  TIP3      2167            0.0000000000
     23876      2304  TIP3      OH2            33.6733110871       -0.6022659313       78.8176587622  TIP3      2168            0.0000000000
     23877      2304  TIP3      H1             33.6416082108        0.3636876927       78.9084998466  TIP3      2168            0.0000000000
     23878      2304  TIP3      H2             34.6412178397       -0.7371015913       78.7883349224  TIP3      2168            0.0000000000
     23879      2305  TIP3      OH2            23.9988557168       62.5260998925       80.2987294241  TIP3      2169            0.0000000000
     23880      2305  TIP3      H1             23.1388851244       62.0658019475       80.1781714845  TIP3      2169            0.0000000000
     23881      2305  TIP3      H2             24.4142062135       62.3444096158       79.4407237803  TIP3      2169            0.0000000000
     23882      2306  TIP3      OH2            26.9949227267       56.9490126038       76.0515010453  TIP3      2170            0.0000000000
     23883      2306  TIP3      H1             26.6968838762       57.8826932918       76.1576216558  TIP3      2170            0.0000000000
     23884      2306  TIP3      H2             26.1414818846       56.5430697804       75.8130510605  TIP3      2170            0.0000000000
     23885      2307  TIP3      OH2            27.9526795991       61.0702366051       80.3186865233  TIP3      2171            0.0000000000
     23886      2307  TIP3      H1             27.3850798285       60.7798373668       81.0568694638  TIP3      2171            0.0000000000
     23887      2307  TIP3      H2             27.2971794383       61.0907412753       79.5883387249  TIP3      2171            0.0000000000
     23888      2308  TIP3      OH2            30.5139821680       60.6400101575       79.2074626146  TIP3      2172            0.0000000000
     23889      2308  TIP3      H1             29.5830093961       60.6316157396       79.5052022690  TIP3      2172            0.0000000000
     23890      2308  TIP3      H2             30.8505370437       59.9281517131       79.7993208013  TIP3      2172            0.0000000000
     23891      2309  TIP3      OH2            31.4817763132       58.8018106155       81.0125049735  TIP3      2173            0.0000000000
     23892      2309  TIP3      H1             31.9342932279       57.9401614960       81.1368506600  TIP3      2173            0.0000000000
     23893      2309  TIP3      H2             31.8466860039       59.3404078615       81.7502553147  TIP3      2173            0.0000000000
     23894      2310  TIP3      OH2            22.0353701357       60.6932755840       80.1907042531  TIP3      2174            0.0000000000
     23895      2310  TIP3      H1             22.4821654597       59.8411327239       80.0589084941  TIP3      2174            0.0000000000
     23896      2310  TIP3      H2             21.5910664432       60.5518119634       81.0618896677  TIP3      2174            0.0000000000
     23897      2311  TIP3      OH2            26.4103784874       56.5982593004       78.6895431842  TIP3      2175            0.0000000000
     23898      2311  TIP3      H1             27.2022198925       56.0468909660       78.8433387869  TIP3      2175            0.0000000000
     23899      2311  TIP3      H2             26.4929302402       56.7241518278       77.7200112146  TIP3      2175            0.0000000000
     23900      2312  TIP3      OH2            26.9006525821       57.4163426267       81.4928500577  TIP3      2176            0.0000000000
     23901      2312  TIP3      H1             26.6443256436       57.1877952789       80.5795206854  TIP3      2176            0.0000000000
     23902      2312  TIP3      H2             26.5539920200       58.3257044800       81.5349195250  TIP3      2176            0.0000000000
     23903      2313  TIP3      OH2            37.2239473336       65.4995539925       68.6729850791  TIP3      2177            0.0000000000
     23904      2313  TIP3      H1             36.4389163644       64.9006817324       68.6530938360  TIP3      2177            0.0000000000
     23905      2313  TIP3      H2             37.3259552742       65.6775723010       69.6311065164  TIP3      2177            0.0000000000
     23906      2314  TIP3      OH2            35.2467513145       63.7520344032       69.1060611767  TIP3      2178            0.0000000000
     23907      2314  TIP3      H1             34.7611307082       62.9390616492       68.8762713633  TIP3      2178            0.0000000000
     23908      2314  TIP3      H2             34.8696251088       63.9290539146       70.0056037812  TIP3      2178            0.0000000000
     23909      2315  TIP3      OH2            37.0316130631       63.2125462053       79.6936500194  TIP3      2179            0.0000000000
     23910      2315  TIP3      H1             36.1802294554       62.9243573970       79.3023933161  TIP3      2179            0.0000000000
     23911      2315  TIP3      H2             37.6710320422       62.5591203402       79.3336233050  TIP3      2179            0.0000000000
     23912      2316  TIP3      OH2            33.9186869974       61.6552182437       67.8560116878  TIP3      2180            0.0000000000
     23913      2316  TIP3      H1             34.0044816972       60.6735265788       67.9371010813  TIP3      2180            0.0000000000
     23914      2316  TIP3      H2             34.6966011625       61.8500961461       67.3081437162  TIP3      2180            0.0000000000
     23915      2317  TIP3      OH2            35.1019618679       62.4878153014       73.1275418837  TIP3      2181            0.0000000000
     23916      2317  TIP3      H1             36.0763265232       62.6163205402       73.0564229331  TIP3      2181            0.0000000000
     23917      2317  TIP3      H2             35.0002294535       62.6694115188       74.0814226496  TIP3      2181            0.0000000000
     23918      2318  TIP3      OH2            35.0346833799       63.1413713776       75.8825154482  TIP3      2182            0.0000000000
     23919      2318  TIP3      H1             34.1031156655       63.4237921187       75.9716878652  TIP3      2182            0.0000000000
     23920      2318  TIP3      H2             35.4900811637       63.9757130790       75.6159434385  TIP3      2182            0.0000000000
     23921      2319  TIP3      OH2            20.0003416605       61.4735333332       78.7383918154  TIP3      2183            0.0000000000
     23922      2319  TIP3      H1             20.7091268302       61.1297778083       79.3300254453  TIP3      2183            0.0000000000
     23923      2319  TIP3      H2             19.3781202207       60.7144901071       78.7912196816  TIP3      2183            0.0000000000
     23924      2320  TIP3      OH2            37.3148361972       57.3340433091       80.7403448103  TIP3      2184            0.0000000000
     23925      2320  TIP3      H1             37.8076274844       56.5923657602       80.3262111872  TIP3      2184            0.0000000000
     23926      2320  TIP3      H2             37.4947503958       58.0359011522       80.0804842828  TIP3      2184            0.0000000000
     23927      2321  TIP3      OH2            34.2204748660       58.9626565333       68.1198824626  TIP3      2185            0.0000000000
     23928      2321  TIP3      H1             34.9633277056       58.6728722375       68.6906841865  TIP3      2185            0.0000000000
     23929      2321  TIP3      H2             34.2196880672       58.2885975812       67.4206655151  TIP3      2185            0.0000000000
     23930      2322  TIP3      OH2            20.8699097544       59.6361101833       72.7380554125  TIP3      2186            0.0000000000
     23931      2322  TIP3      H1             21.3988789002       58.8056993690       72.6909177391  TIP3      2186            0.0000000000
     23932      2322  TIP3      H2             21.5410764835       60.3321059541       72.6374469581  TIP3      2186            0.0000000000
     23933      2323  TIP3      OH2            19.1814193744       63.1702068811       73.1030741452  TIP3      2187            0.0000000000
     23934      2323  TIP3      H1             19.9216215027       62.7839311019       72.5966222643  TIP3      2187            0.0000000000
     23935      2323  TIP3      H2             19.1946438268       64.0824416840       72.7788976478  TIP3      2187            0.0000000000
     23936      2324  TIP3      OH2            36.9789037494       59.4908863802       79.2027883541  TIP3      2188            0.0000000000
     23937      2324  TIP3      H1             36.3110480918       59.6615115350       79.9002255452  TIP3      2188            0.0000000000
     23938      2324  TIP3      H2             36.4466362618       59.0941356285       78.4896383632  TIP3      2188            0.0000000000
     23939      2325  TIP3      OH2            19.6555597854       59.2351210442       67.5511775018  TIP3      2189            0.0000000000
     23940      2325  TIP3      H1             18.7200787336       59.4136596484       67.4258827475  TIP3      2189            0.0000000000
     23941      2325  TIP3      H2             19.9349554837       58.9942943179       66.6488349314  TIP3      2189            0.0000000000
     23942      2326  TIP3      OH2            19.0949512461       57.8110309279       75.5882710850  TIP3      2190            0.0000000000
     23943      2326  TIP3      H1             18.4940343382       57.3768505430       76.2320477940  TIP3      2190            0.0000000000
     23944      2326  TIP3      H2             18.6636883423       58.6617205610       75.4132757216  TIP3      2190            0.0000000000
     23945      2327  TIP3      OH2            35.9240617350       56.8617885872       77.4814733689  TIP3      2191            0.0000000000
     23946      2327  TIP3      H1             35.3565107310       57.5390402466       77.0819277360  TIP3      2191            0.0000000000
     23947      2327  TIP3      H2             35.7066300037       56.0882130068       76.9386540999  TIP3      2191            0.0000000000
     23948      2328  TIP3      OH2            28.9037651075       58.0828523234       70.9059610278  TIP3      2192            0.0000000000
     23949      2328  TIP3      H1             28.2435320841       57.5978286826       71.4601273229  TIP3      2192            0.0000000000
     23950      2328  TIP3      H2             29.7350743420       57.6538392095       71.1647697602  TIP3      2192            0.0000000000
     23951      2329  TIP3      OH2            34.7287213889       56.9159153761       71.6593594904  TIP3      2193            0.0000000000
     23952      2329  TIP3      H1             35.3624495471       57.4063420185       71.1043387285  TIP3      2193            0.0000000000
     23953      2329  TIP3      H2             33.8889102365       57.1706358277       71.2367767982  TIP3      2193            0.0000000000
     23954      2330  TIP3      OH2            36.3416627297       57.8370048961       69.5357446747  TIP3      2194            0.0000000000
     23955      2330  TIP3      H1             36.9230089879       57.1193574427       69.1773036989  TIP3      2194            0.0000000000
     23956      2330  TIP3      H2             36.9850892270       58.5382603059       69.7976671662  TIP3      2194            0.0000000000
     23957      2331  TIP3      OH2            21.7024783314       57.1028899133       69.7929942785  TIP3      2195            0.0000000000
     23958      2331  TIP3      H1             20.8140610422       57.1971186679       69.3963229955  TIP3      2195            0.0000000000
     23959      2331  TIP3      H2             21.9814493867       56.2671977237       69.3606060439  TIP3      2195            0.0000000000
     23960      2332  TIP3      OH2            26.0246361670       57.2976848811       69.4237515610  TIP3      2196            0.0000000000
     23961      2332  TIP3      H1             26.5866899777       56.9908236453       68.7060247330  TIP3      2196            0.0000000000
     23962      2332  TIP3      H2             26.4977570132       56.9469472199       70.1987565605  TIP3      2196            0.0000000000
     23963      2333  TIP3      OH2            31.8686305400       57.2909358103       70.7118490902  TIP3      2197            0.0000000000
     23964      2333  TIP3      H1             31.6907671913       57.3483082797       69.7643856279  TIP3      2197            0.0000000000
     23965      2333  TIP3      H2             31.4788652811       56.4173771078       70.9443630046  TIP3      2197            0.0000000000
     23966      2334  TIP3      OH2            32.8120110598       57.0732088171       66.5339695985  TIP3      2198            0.0000000000
     23967      2334  TIP3      H1             32.0732435693       57.7006219085       66.6365589676  TIP3      2198            0.0000000000
     23968      2334  TIP3      H2             32.4923124261       56.2772049045       67.0127347029  TIP3      2198            0.0000000000
     23969      2335  TIP3      OH2            28.0166512291       59.2072191829       66.2876181655  TIP3      2199            0.0000000000
     23970      2335  TIP3      H1             28.3759960278       58.6119605427       66.9813095327  TIP3      2199            0.0000000000
     23971      2335  TIP3      H2             28.1163806891       60.0790251866       66.7250291548  TIP3      2199            0.0000000000
     23972      2336  TIP3      OH2            21.6224892177       57.7297259146       78.6187964754  TIP3      2200            0.0000000000
     23973      2336  TIP3      H1             20.9395025305       57.0440070086       78.7600415835  TIP3      2200            0.0000000000
     23974      2336  TIP3      H2             22.2436326333       57.5491950300       79.3515584443  TIP3      2200            0.0000000000
     23975      2337  TIP3      OH2            23.4250935589       57.1035507256       80.6614475887  TIP3      2201            0.0000000000
     23976      2337  TIP3      H1             24.2455300181       56.8529990063       80.2045955819  TIP3      2201            0.0000000000
     23977      2337  TIP3      H2             23.0836993968       56.2414378975       80.9670518951  TIP3      2201            0.0000000000
     23978      2338  TIP3      OH2            32.1168810844       56.3008000213       81.1772758833  TIP3      2202            0.0000000000
     23979      2338  TIP3      H1             32.2765703347       55.9189082648       82.0654946215  TIP3      2202            0.0000000000
     23980      2338  TIP3      H2             32.9687850537       56.0950784406       80.7440826721  TIP3      2202            0.0000000000
     23981      2339  TIP3      OH2            49.2652861251       65.4346519038       72.1230451091  TIP3      2203            0.0000000000
     23982      2339  TIP3      H1             49.4182281090       65.0265777990       72.9999569331  TIP3      2203            0.0000000000
     23983      2339  TIP3      H2             48.4941445431       64.9354396951       71.8307028400  TIP3      2203            0.0000000000
     23984      2340  TIP3      OH2            40.2940342525       65.4030171776       73.8520829977  TIP3      2204            0.0000000000
     23985      2340  TIP3      H1             40.9037891412       64.7362620649       74.2105327548  TIP3      2204            0.0000000000
     23986      2340  TIP3      H2             40.3696178431       66.1166941767       74.5101685651  TIP3      2204            0.0000000000
     23987      2341  TIP3      OH2            38.7232998329       62.9570384908       68.4495050816  TIP3      2205            0.0000000000
     23988      2341  TIP3      H1             38.6011916102       63.8976189972       68.6562659118  TIP3      2205            0.0000000000
     23989      2341  TIP3      H2             37.8599148478       62.6111858496       68.7376547214  TIP3      2205            0.0000000000
     23990      2342  TIP3      OH2            38.6544558768       65.9855723685       70.9519384074  TIP3      2206            0.0000000000
     23991      2342  TIP3      H1             39.1215505071       65.1264676397       71.0538147375  TIP3      2206            0.0000000000
     23992      2342  TIP3      H2             39.2101385923       66.3746474490       70.2519525071  TIP3      2206            0.0000000000
     23993      2343  TIP3      OH2            55.3393229784       59.6220210101       73.5780037637  TIP3      2207            0.0000000000
     23994      2343  TIP3      H1             55.5383963574       60.2075722145       74.3339087960  TIP3      2207            0.0000000000
     23995      2343  TIP3      H2             56.1377053379       59.7223630773       73.0433695243  TIP3      2207            0.0000000000
     23996      2344  TIP3      OH2            50.2527549640       62.6920032353       73.7501365801  TIP3      2208            0.0000000000
     23997      2344  TIP3      H1             50.2845169730       61.7075788028       73.7875846686  TIP3      2208            0.0000000000
     23998      2344  TIP3      H2             50.2041227199       62.7901823454       72.7699479034  TIP3      2208            0.0000000000
     23999      2345  TIP3      OH2            43.8374695624       60.1458654328       69.9454598437  TIP3      2209            0.0000000000
     24000      2345  TIP3      H1             43.7180478372       61.1154311089       70.0125634245  TIP3      2209            0.0000000000
     24001      2345  TIP3      H2             42.9057372997       59.8775254621       69.8205783578  TIP3      2209            0.0000000000
     24002      2346  TIP3      OH2            50.9342161029       60.6434963877       69.6396285167  TIP3      2210            0.0000000000
     24003      2346  TIP3      H1             51.6547734236       60.3984729647       70.2705128287  TIP3      2210            0.0000000000
     24004      2346  TIP3      H2             51.3702273431       61.3541974285       69.1366865202  TIP3      2210            0.0000000000
     24005      2347  TIP3      OH2            40.1495417477       63.6299968990       71.0849718636  TIP3      2211            0.0000000000
     24006      2347  TIP3      H1             40.1984364529       63.2440130541       71.9755072717  TIP3      2211            0.0000000000
     24007      2347  TIP3      H2             40.4243406067       62.8694700802       70.5344751679  TIP3      2211            0.0000000000
     24008      2348  TIP3      OH2            44.4064203230       64.3006970257       71.2372921876  TIP3      2212            0.0000000000
     24009      2348  TIP3      H1             45.2669476275       63.8509137237       71.2819007641  TIP3      2212            0.0000000000
     24010      2348  TIP3      H2             43.9694328225       63.7579405087       70.5336023311  TIP3      2212            0.0000000000
     24011      2349  TIP3      OH2            55.5669506269       61.1819380292       75.9519114343  TIP3      2213            0.0000000000
     24012      2349  TIP3      H1             54.9375099576       61.8905767839       75.6801608786  TIP3      2213            0.0000000000
     24013      2349  TIP3      H2             55.9856213125       61.5901762429       76.7303594405  TIP3      2213            0.0000000000
     24014      2350  TIP3      OH2            42.5434879179       59.5151415739       74.7340717725  TIP3      2214            0.0000000000
     24015      2350  TIP3      H1             42.2105452382       60.2688433208       74.1963351814  TIP3      2214            0.0000000000
     24016      2350  TIP3      H2             42.0755486940       59.6318957323       75.5833834742  TIP3      2214            0.0000000000
     24017      2351  TIP3      OH2            53.1560618955       60.4897514874       71.1675645569  TIP3      2215            0.0000000000
     24018      2351  TIP3      H1             53.3885287466       59.6989353334       71.6663323166  TIP3      2215            0.0000000000
     24019      2351  TIP3      H2             53.6486247856       61.1548917411       71.6891768896  TIP3      2215            0.0000000000
     24020      2352  TIP3      OH2            42.6271248502       61.3730261585       72.6452725224  TIP3      2216            0.0000000000
     24021      2352  TIP3      H1             42.0396377667       61.9651242538       73.1551748115  TIP3      2216            0.0000000000
     24022      2352  TIP3      H2             42.0131670028       60.9932871738       71.9980387327  TIP3      2216            0.0000000000
     24023      2353  TIP3      OH2            52.7351484960       58.8351585997       74.4838564741  TIP3      2217            0.0000000000
     24024      2353  TIP3      H1             51.9918593184       59.1411974958       73.9262812943  TIP3      2217            0.0000000000
     24025      2353  TIP3      H2             53.4970854151       59.3469929627       74.1512307820  TIP3      2217            0.0000000000
     24026      2354  TIP3      OH2            45.5721503992       56.6575107524       72.0165845145  TIP3      2218            0.0000000000
     24027      2354  TIP3      H1             45.4246000990       55.6969883467       72.1225637171  TIP3      2218            0.0000000000
     24028      2354  TIP3      H2             44.7938325271       57.0512474181       72.4887216108  TIP3      2218            0.0000000000
     24029      2355  TIP3      OH2            48.1906808102       65.2627310173       66.8716204655  TIP3      2219            0.0000000000
     24030      2355  TIP3      H1             47.9444752747       66.0229919480       67.4114062664  TIP3      2219            0.0000000000
     24031      2355  TIP3      H2             49.0928546624       65.5050473359       66.5474700061  TIP3      2219            0.0000000000
     24032      2356  TIP3      OH2            55.3878544791       64.7578035781       75.0062917665  TIP3      2220            0.0000000000
     24033      2356  TIP3      H1             55.8920817776       65.6019829505       74.9545092364  TIP3      2220            0.0000000000
     24034      2356  TIP3      H2             55.7334990049       64.2713667256       74.2318264050  TIP3      2220            0.0000000000
     24035      2357  TIP3      OH2            52.0301306717       65.1964315724       67.9989140012  TIP3      2221            0.0000000000
     24036      2357  TIP3      H1             51.8046534813       65.5053309736       68.9051043145  TIP3      2221            0.0000000000
     24037      2357  TIP3      H2             52.7407516977       64.5592579170       68.2050418189  TIP3      2221            0.0000000000
     24038      2358  TIP3      OH2            51.6388099247       64.1630550083       76.9959286749  TIP3      2222            0.0000000000
     24039      2358  TIP3      H1             51.8587348189       64.9101497149       77.5864032130  TIP3      2222            0.0000000000
     24040      2358  TIP3      H2             51.0002466115       64.5377567605       76.3579919472  TIP3      2222            0.0000000000
     24041      2359  TIP3      OH2            43.4745009711       64.9447962013       73.6338735446  TIP3      2223            0.0000000000
     24042      2359  TIP3      H1             43.6345473013       64.6592585751       72.6976977352  TIP3      2223            0.0000000000
     24043      2359  TIP3      H2             43.4496958866       65.9175536611       73.4988069120  TIP3      2223            0.0000000000
     24044      2360  TIP3      OH2            50.5973109419       65.5074460752       65.7033965364  TIP3      2224            0.0000000000
     24045      2360  TIP3      H1             51.1354323752       65.0846685512       66.4001813592  TIP3      2224            0.0000000000
     24046      2360  TIP3      H2             50.7820242293       64.9673661393       64.9228534527  TIP3      2224            0.0000000000
     24047      2361  TIP3      OH2            41.5802762942        0.2674137524       76.6196530374  TIP3      2225            0.0000000000
     24048      2361  TIP3      H1             41.2479626530        0.8566632471       77.3147264485  TIP3      2225            0.0000000000
     24049      2361  TIP3      H2             41.3594902348       -0.5878027046       77.0199769560  TIP3      2225            0.0000000000
     24050      2362  TIP3      OH2            54.0736356396       56.5914808402       65.3999335999  TIP3      2226            0.0000000000
     24051      2362  TIP3      H1             53.1811961930       56.7320181840       65.7897675609  TIP3      2226            0.0000000000
     24052      2362  TIP3      H2             54.2468722326       57.4544764548       64.9637903002  TIP3      2226            0.0000000000
     24053      2363  TIP3      OH2            42.2054042077       65.3229525056       67.3815106793  TIP3      2227            0.0000000000
     24054      2363  TIP3      H1             41.9473728128       66.1221167996       66.8883459269  TIP3      2227            0.0000000000
     24055      2363  TIP3      H2             42.0530288848       64.6607047895       66.6962012456  TIP3      2227            0.0000000000
     24056      2364  TIP3      OH2            53.9217088077       62.6030115479       78.6321257445  TIP3      2228            0.0000000000
     24057      2364  TIP3      H1             53.0061720299       62.8154183540       78.3897952746  TIP3      2228            0.0000000000
     24058      2364  TIP3      H2             53.9574820327       61.6365787630       78.5158135817  TIP3      2228            0.0000000000
     24059      2365  TIP3      OH2            43.6182908206       57.7506788510       73.2495320860  TIP3      2229            0.0000000000
     24060      2365  TIP3      H1             42.7542508228       57.8214083515       72.7833017575  TIP3      2229            0.0000000000
     24061      2365  TIP3      H2             43.4498753442       58.4460563057       73.9296252246  TIP3      2229            0.0000000000
     24062      2366  TIP3      OH2            48.5264940507       57.2212384625       76.3229258246  TIP3      2230            0.0000000000
     24063      2366  TIP3      H1             48.9970903299       56.8971481540       77.1306194737  TIP3      2230            0.0000000000
     24064      2366  TIP3      H2             47.5912237818       57.2752522475       76.6152327996  TIP3      2230            0.0000000000
     24065      2367  TIP3      OH2            50.9389090741       61.5932450296       77.4994069859  TIP3      2231            0.0000000000
     24066      2367  TIP3      H1             50.3156011267       61.4498483217       78.2584215963  TIP3      2231            0.0000000000
     24067      2367  TIP3      H2             50.9276325872       62.5643696946       77.3830986450  TIP3      2231            0.0000000000
     24068      2368  TIP3      OH2            47.1808443384       60.1155830587       64.0944004423  TIP3      2232            0.0000000000
     24069      2368  TIP3      H1             46.8111723796       59.9293651897       64.9784464405  TIP3      2232            0.0000000000
     24070      2368  TIP3      H2             47.8675098602       60.7715562913       64.2945729029  TIP3      2232            0.0000000000
     24071      2369  TIP3      OH2            43.5268488775       62.7935517122       75.2621710259  TIP3      2233            0.0000000000
     24072      2369  TIP3      H1             42.5693311353       62.6833136784       75.2036198905  TIP3      2233            0.0000000000
     24073      2369  TIP3      H2             43.6648818556       63.4988687497       74.5837575310  TIP3      2233            0.0000000000
     24074      2370  TIP3      OH2            43.2921019478       62.8224139172       69.3411335376  TIP3      2234            0.0000000000
     24075      2370  TIP3      H1             42.3328807571       62.6469124582       69.2120516792  TIP3      2234            0.0000000000
     24076      2370  TIP3      H2             43.6400025401       62.5842158426       68.4591866284  TIP3      2234            0.0000000000
     24077      2371  TIP3      OH2            48.9021440557       63.3534363536       68.5813726479  TIP3      2235            0.0000000000
     24078      2371  TIP3      H1             48.5390826292       64.0973372903       68.0427760668  TIP3      2235            0.0000000000
     24079      2371  TIP3      H2             49.6251740530       63.0425985878       68.0247480489  TIP3      2235            0.0000000000
     24080      2372  TIP3      OH2            48.9149224084       63.5604143472       79.4906485129  TIP3      2236            0.0000000000
     24081      2372  TIP3      H1             48.3996698713       63.1475046904       80.1972202803  TIP3      2236            0.0000000000
     24082      2372  TIP3      H2             49.8134828834       63.5020251807       79.8743462553  TIP3      2236            0.0000000000
     24083      2373  TIP3      OH2            49.7655557039       62.6273784969       71.1534162045  TIP3      2237            0.0000000000
     24084      2373  TIP3      H1             49.5182107851       63.0572479710       70.3120852586  TIP3      2237            0.0000000000
     24085      2373  TIP3      H2             50.1531187125       61.7834577524       70.8505760950  TIP3      2237            0.0000000000
     24086      2374  TIP3      OH2            40.9310312672       63.4212488647       76.9771939783  TIP3      2238            0.0000000000
     24087      2374  TIP3      H1             40.9174221497       62.8060282565       77.7181535819  TIP3      2238            0.0000000000
     24088      2374  TIP3      H2             40.3948421713       62.9263343492       76.3223452871  TIP3      2238            0.0000000000
     24089      2375  TIP3      OH2            38.0571320460       59.9421551491       70.0875099445  TIP3      2239            0.0000000000
     24090      2375  TIP3      H1             38.8266086312       59.8259533801       70.6829731883  TIP3      2239            0.0000000000
     24091      2375  TIP3      H2             38.4795965475       60.0592304391       69.2169571327  TIP3      2239            0.0000000000
     24092      2376  TIP3      OH2            38.9094637490       60.7467672284       65.5037118109  TIP3      2240            0.0000000000
     24093      2376  TIP3      H1             39.6492873530       61.2423748992       65.1326927201  TIP3      2240            0.0000000000
     24094      2376  TIP3      H2             38.3085500917       61.4701265862       65.7868897232  TIP3      2240            0.0000000000
     24095      2377  TIP3      OH2            49.1535220448       64.4230052072       75.5036468171  TIP3      2241            0.0000000000
     24096      2377  TIP3      H1             49.6762332723       63.8328531177       74.9163948971  TIP3      2241            0.0000000000
     24097      2377  TIP3      H2             48.7280513396       63.7662011785       76.1035688983  TIP3      2241            0.0000000000
     24098      2378  TIP3      OH2            46.4907485501       60.0958713101       70.0962677160  TIP3      2242            0.0000000000
     24099      2378  TIP3      H1             45.5080087501       60.0482704868       70.1678963644  TIP3      2242            0.0000000000
     24100      2378  TIP3      H2             46.7874207463       59.7295005506       70.9512928867  TIP3      2242            0.0000000000
     24101      2379  TIP3      OH2            40.9149528536       61.7706902777       69.2806149849  TIP3      2243            0.0000000000
     24102      2379  TIP3      H1             40.1014944047       62.1139726843       68.8482296858  TIP3      2243            0.0000000000
     24103      2379  TIP3      H2             40.7931339362       60.7993030347       69.2100213214  TIP3      2243            0.0000000000
     24104      2380  TIP3      OH2            44.2607205377       62.1514217927       66.9211193819  TIP3      2244            0.0000000000
     24105      2380  TIP3      H1             45.2210259441       62.2807349080       67.0597213805  TIP3      2244            0.0000000000
     24106      2380  TIP3      H2             44.0230300699       62.8571066052       66.2893854409  TIP3      2244            0.0000000000
     24107      2381  TIP3      OH2            50.4955659482       59.8307704787       73.2120543591  TIP3      2245            0.0000000000
     24108      2381  TIP3      H1             50.0159997966       59.5835274123       74.0413642640  TIP3      2245            0.0000000000
     24109      2381  TIP3      H2             50.2944135963       59.1030784138       72.6120947915  TIP3      2245            0.0000000000
     24110      2382  TIP3      OH2            43.5627622006       63.5608765589       64.7455148257  TIP3      2246            0.0000000000
     24111      2382  TIP3      H1             42.8917630682       62.8934089354       64.5536081858  TIP3      2246            0.0000000000
     24112      2382  TIP3      H2             44.1794765902       63.4272729524       64.0011151535  TIP3      2246            0.0000000000
     24113      2383  TIP3      OH2            46.7694957839       62.6380606662       71.7488343152  TIP3      2247            0.0000000000
     24114      2383  TIP3      H1             47.7071258181       62.4169080054       71.6433427454  TIP3      2247            0.0000000000
     24115      2383  TIP3      H2             46.5916487626       62.2252216076       72.6211560474  TIP3      2247            0.0000000000
     24116      2384  TIP3      OH2            41.5410032494       59.2904872926       68.8386286396  TIP3      2248            0.0000000000
     24117      2384  TIP3      H1             41.2313919007       58.4196076269       69.1551168124  TIP3      2248            0.0000000000
     24118      2384  TIP3      H2             42.2856972614       59.0676270126       68.2677328954  TIP3      2248            0.0000000000
     24119      2385  TIP3      OH2            46.3333137561       61.6450751347       74.3350146506  TIP3      2249            0.0000000000
     24120      2385  TIP3      H1             45.5389120422       62.2068574068       74.2836593527  TIP3      2249            0.0000000000
     24121      2385  TIP3      H2             46.8501253026       62.0932304390       75.0312437913  TIP3      2249            0.0000000000
     24122      2386  TIP3      OH2            38.3299909143       65.4414322315       77.5721526074  TIP3      2250            0.0000000000
     24123      2386  TIP3      H1             38.8178638348       64.6862734047       77.9558743317  TIP3      2250            0.0000000000
     24124      2386  TIP3      H2             37.5142113265       65.0171775811       77.2692834860  TIP3      2250            0.0000000000
     24125      2387  TIP3      OH2            45.7954844667       64.5005500535       79.5748928854  TIP3      2251            0.0000000000
     24126      2387  TIP3      H1             45.1383098352       64.3662596839       78.8496083719  TIP3      2251            0.0000000000
     24127      2387  TIP3      H2             46.5641112866       63.9924547548       79.2657292375  TIP3      2251            0.0000000000
     24128      2388  TIP3      OH2            55.7608533989       62.7406910376       66.2425985932  TIP3      2252            0.0000000000
     24129      2388  TIP3      H1             56.0977765230       62.1257608351       65.5769212236  TIP3      2252            0.0000000000
     24130      2388  TIP3      H2             55.8630128606       63.6049788744       65.8058048003  TIP3      2252            0.0000000000
     24131      2389  TIP3      OH2            40.9795516816       60.2727895449       76.9278286875  TIP3      2253            0.0000000000
     24132      2389  TIP3      H1             40.8103073071       60.9311161994       76.2184062566  TIP3      2253            0.0000000000
     24133      2389  TIP3      H2             40.1642369286       59.7575897626       76.9156173794  TIP3      2253            0.0000000000
     24134      2390  TIP3      OH2            49.7536834590       59.5510599686       75.7721866110  TIP3      2254            0.0000000000
     24135      2390  TIP3      H1             50.3017191894       59.8758766120       76.5010639478  TIP3      2254            0.0000000000
     24136      2390  TIP3      H2             49.3133792212       58.7736793897       76.1664981023  TIP3      2254            0.0000000000
     24137      2391  TIP3      OH2            50.1355970643       59.7001477450       67.1716526717  TIP3      2255            0.0000000000
     24138      2391  TIP3      H1             50.6467925271       60.3335982425       66.6325397495  TIP3      2255            0.0000000000
     24139      2391  TIP3      H2             50.4918982100       59.8675277659       68.0735005305  TIP3      2255            0.0000000000
     24140      2392  TIP3      OH2            46.7525869407       61.8411939729       67.8098740035  TIP3      2256            0.0000000000
     24141      2392  TIP3      H1             47.5256314338       62.3539271550       68.1293635007  TIP3      2256            0.0000000000
     24142      2392  TIP3      H2             46.4561790973       61.3962746279       68.6336360873  TIP3      2256            0.0000000000
     24143      2393  TIP3      OH2            47.9388069369       62.5700630984       77.2012679885  TIP3      2257            0.0000000000
     24144      2393  TIP3      H1             48.1457687217       62.7883590577       78.1445094498  TIP3      2257            0.0000000000
     24145      2393  TIP3      H2             48.3554761423       61.6971491551       77.1016001612  TIP3      2257            0.0000000000
     24146      2394  TIP3      OH2            47.6968927976       58.4648989266       68.3924774326  TIP3      2258            0.0000000000
     24147      2394  TIP3      H1             47.2982824843       59.0405870178       69.0950536523  TIP3      2258            0.0000000000
     24148      2394  TIP3      H2             48.4602232917       59.0392311285       68.1479949059  TIP3      2258            0.0000000000
     24149      2395  TIP3      OH2            53.3763433524       60.0681114663       77.5250560716  TIP3      2259            0.0000000000
     24150      2395  TIP3      H1             52.5298500973       60.5526422681       77.5284055699  TIP3      2259            0.0000000000
     24151      2395  TIP3      H2             53.6934571967       60.2209153832       76.6203094750  TIP3      2259            0.0000000000
     24152      2396  TIP3      OH2            52.7684199295       63.8963558456       71.3072994370  TIP3      2260            0.0000000000
     24153      2396  TIP3      H1             52.1874138498       64.2117108202       72.0076804268  TIP3      2260            0.0000000000
     24154      2396  TIP3      H2             53.2974769223       63.2130028073       71.7690597376  TIP3      2260            0.0000000000
     24155      2397  TIP3      OH2            41.2430592691       57.4016976289       72.3383762368  TIP3      2261            0.0000000000
     24156      2397  TIP3      H1             41.0612179583       57.2685835606       71.3838276619  TIP3      2261            0.0000000000
     24157      2397  TIP3      H2             40.8272052990       56.5774237064       72.6693479750  TIP3      2261            0.0000000000
     24158      2398  TIP3      OH2            40.1880979467       64.5208485187       79.9315285279  TIP3      2262            0.0000000000
     24159      2398  TIP3      H1             41.1501642919       64.4267680851       79.8232475970  TIP3      2262            0.0000000000
     24160      2398  TIP3      H2             40.1789860288       64.7974607061       80.8801991975  TIP3      2262            0.0000000000
     24161      2399  TIP3      OH2            44.0460823813       64.0608223197       77.5544970302  TIP3      2263            0.0000000000
     24162      2399  TIP3      H1             43.1666693065       63.8590354933       77.1795060637  TIP3      2263            0.0000000000
     24163      2399  TIP3      H2             44.5549683242       63.9869784706       76.7142300302  TIP3      2263            0.0000000000
     24164      2400  TIP3      OH2            45.2161911234       62.5909968998       62.0579603979  TIP3      2264            0.0000000000
     24165      2400  TIP3      H1             45.1221154025       62.4863280478       61.0884053004  TIP3      2264            0.0000000000
     24166      2400  TIP3      H2             45.6759494972       61.7593467960       62.2559155789  TIP3      2264            0.0000000000
     24167      2401  TIP3      OH2            44.8928502934       61.4507996950       78.1943714874  TIP3      2265            0.0000000000
     24168      2401  TIP3      H1             45.1317330755       60.8433012005       77.4704284190  TIP3      2265            0.0000000000
     24169      2401  TIP3      H2             44.3713303227       62.1092528440       77.7158193305  TIP3      2265            0.0000000000
     24170      2402  TIP3      OH2            45.1357764289       59.7526836459       75.9070799016  TIP3      2266            0.0000000000
     24171      2402  TIP3      H1             45.6513730484       60.2538926028       75.2324256201  TIP3      2266            0.0000000000
     24172      2402  TIP3      H2             44.2308728932       59.8956811091       75.5484099578  TIP3      2266            0.0000000000
     24173      2403  TIP3      OH2            45.9994118760       64.2973082522       75.4438383629  TIP3      2267            0.0000000000
     24174      2403  TIP3      H1             46.9493385724       64.3090609921       75.6371028776  TIP3      2267            0.0000000000
     24175      2403  TIP3      H2             45.8465297556       65.2454873051       75.2758450368  TIP3      2267            0.0000000000
     24176      2404  TIP3      OH2            51.2348338151       62.9640741841       80.9685151492  TIP3      2268            0.0000000000
     24177      2404  TIP3      H1             50.9581236745       62.0384225338       80.9367261900  TIP3      2268            0.0000000000
     24178      2404  TIP3      H2             52.1559802428       62.8786325790       81.2568518359  TIP3      2268            0.0000000000
     24179      2405  TIP3      OH2            52.6861212618       -0.3799355234       79.1173903227  TIP3      2269            0.0000000000
     24180      2405  TIP3      H1             52.6690214122        0.5192984284       78.7518902467  TIP3      2269            0.0000000000
     24181      2405  TIP3      H2             53.6280375981       -0.6021136681       78.9684860598  TIP3      2269            0.0000000000
     24182      2406  TIP3      OH2            42.9784931832       62.7676641373       80.4004444053  TIP3      2270            0.0000000000
     24183      2406  TIP3      H1             42.3110112614       62.2085760575       79.9483944374  TIP3      2270            0.0000000000
     24184      2406  TIP3      H2             43.7080743791       62.7342966913       79.7614599495  TIP3      2270            0.0000000000
     24185      2407  TIP3      OH2            45.7811659298       57.1112637627       76.2546877710  TIP3      2271            0.0000000000
     24186      2407  TIP3      H1             45.4723628582       58.0403598759       76.1744003064  TIP3      2271            0.0000000000
     24187      2407  TIP3      H2             44.9977399628       56.6171972066       75.9820016749  TIP3      2271            0.0000000000
     24188      2408  TIP3      OH2            46.9066671971       61.4754218240       80.2287242245  TIP3      2272            0.0000000000
     24189      2408  TIP3      H1             46.3117924474       61.2230274719       80.9546844606  TIP3      2272            0.0000000000
     24190      2408  TIP3      H2             46.3366984259       61.2980385546       79.4543971469  TIP3      2272            0.0000000000
     24191      2409  TIP3      OH2            49.3700270981       60.7247365250       79.3794219227  TIP3      2273            0.0000000000
     24192      2409  TIP3      H1             48.4534521976       60.9024116063       79.6811154240  TIP3      2273            0.0000000000
     24193      2409  TIP3      H2             49.6422839947       60.0372398069       80.0282378036  TIP3      2273            0.0000000000
     24194      2410  TIP3      OH2            50.3879656636       58.8801445025       81.1081087882  TIP3      2274            0.0000000000
     24195      2410  TIP3      H1             50.7650540641       57.9736454096       81.1275887045  TIP3      2274            0.0000000000
     24196      2410  TIP3      H2             50.8174982060       59.2815387388       81.8957818888  TIP3      2274            0.0000000000
     24197      2411  TIP3      OH2            40.9186236561       60.8384004908       80.1357968801  TIP3      2275            0.0000000000
     24198      2411  TIP3      H1             41.0020443511       60.0986602196       79.5021742122  TIP3      2275            0.0000000000
     24199      2411  TIP3      H2             40.6953767819       60.3495423501       80.9659303727  TIP3      2275            0.0000000000
     24200      2412  TIP3      OH2            45.3305019782       56.5205051928       78.8986506113  TIP3      2276            0.0000000000
     24201      2412  TIP3      H1             46.1732205238       56.0493236169       79.0367782348  TIP3      2276            0.0000000000
     24202      2412  TIP3      H2             45.3483709387       56.5721157079       77.9238746184  TIP3      2276            0.0000000000
     24203      2413  TIP3      OH2            45.3047722644       57.8384556837       81.6033227423  TIP3      2277            0.0000000000
     24204      2413  TIP3      H1             45.4367126655       57.4263025260       80.7339473229  TIP3      2277            0.0000000000
     24205      2413  TIP3      H2             44.8680743212       58.6677931233       81.3341899700  TIP3      2277            0.0000000000
     24206      2414  TIP3      OH2            56.0173122933       65.5572776217       68.2848646786  TIP3      2278            0.0000000000
     24207      2414  TIP3      H1             55.3358722729       64.8502820772       68.3142991518  TIP3      2278            0.0000000000
     24208      2414  TIP3      H2             56.3157446632       65.5286824565       69.2268203765  TIP3      2278            0.0000000000
     24209      2415  TIP3      OH2            56.7449473730       64.8565859892       64.5602752479  TIP3      2279            0.0000000000
     24210      2415  TIP3      H1             55.9144745318       65.3752924915       64.6244144566  TIP3      2279            0.0000000000
     24211      2415  TIP3      H2             57.3708390700       65.5895309697       64.8137345132  TIP3      2279            0.0000000000
     24212      2416  TIP3      OH2            54.1198644419       63.7750020072       69.0306704767  TIP3      2280            0.0000000000
     24213      2416  TIP3      H1             53.7895652664       62.9408540473       68.6584160482  TIP3      2280            0.0000000000
     24214      2416  TIP3      H2             53.7243354157       63.7662533440       69.9419052295  TIP3      2280            0.0000000000
     24215      2417  TIP3      OH2            56.2576321798       63.2902667893       80.3463880947  TIP3      2281            0.0000000000
     24216      2417  TIP3      H1             55.6073180913       63.5828133712       79.6824243932  TIP3      2281            0.0000000000
     24217      2417  TIP3      H2             56.6792018627       62.5632599148       79.8446842134  TIP3      2281            0.0000000000
     24218      2418  TIP3      OH2            52.7424730034       61.5920247891       67.4724488495  TIP3      2282            0.0000000000
     24219      2418  TIP3      H1             53.1242132441       60.7466420287       67.8124255397  TIP3      2282            0.0000000000
     24220      2418  TIP3      H2             53.3969050764       61.8386678371       66.8038068922  TIP3      2282            0.0000000000
     24221      2419  TIP3      OH2            54.2654043751       62.2884855244       72.8722005811  TIP3      2283            0.0000000000
     24222      2419  TIP3      H1             55.2052073945       62.4495103119       73.1200449235  TIP3      2283            0.0000000000
     24223      2419  TIP3      H2             53.8111016322       62.4609217464       73.7201418614  TIP3      2283            0.0000000000
     24224      2420  TIP3      OH2            53.5793413251       62.8594482375       75.4421692265  TIP3      2284            0.0000000000
     24225      2420  TIP3      H1             52.7804857792       63.1184319647       75.9486229529  TIP3      2284            0.0000000000
     24226      2420  TIP3      H2             54.1059554809       63.6917547589       75.5244329389  TIP3      2284            0.0000000000
     24227      2421  TIP3      OH2            38.7111330109       61.4777304737       78.4911773398  TIP3      2285            0.0000000000
     24228      2421  TIP3      H1             39.5082809171       61.4973090254       79.0559761681  TIP3      2285            0.0000000000
     24229      2421  TIP3      H2             38.4049794403       60.5461599282       78.5801274799  TIP3      2285            0.0000000000
     24230      2422  TIP3      OH2            56.1929933171       57.4399386113       80.5947884669  TIP3      2286            0.0000000000
     24231      2422  TIP3      H1             56.6523907902       56.6156005364       80.3149942955  TIP3      2286            0.0000000000
     24232      2422  TIP3      H2             56.3124164216       58.0238482686       79.8301938490  TIP3      2286            0.0000000000
     24233      2423  TIP3      OH2            53.6098334390       59.0553259212       67.8649040384  TIP3      2287            0.0000000000
     24234      2423  TIP3      H1             54.1987039813       58.6287862545       68.5176031523  TIP3      2287            0.0000000000
     24235      2423  TIP3      H2             53.1628571198       58.3348233444       67.3983968526  TIP3      2287            0.0000000000
     24236      2424  TIP3      OH2            40.3557740888       59.8946548057       71.8629950444  TIP3      2288            0.0000000000
     24237      2424  TIP3      H1             40.7488896491       59.0405910800       72.1593997616  TIP3      2288            0.0000000000
     24238      2424  TIP3      H2             40.3207173449       60.4001070633       72.7002861685  TIP3      2288            0.0000000000
     24239      2425  TIP3      OH2            37.7427116636       63.2487245042       73.1350475327  TIP3      2289            0.0000000000
     24240      2425  TIP3      H1             38.4388312423       62.7515198625       73.6149803033  TIP3      2289            0.0000000000
     24241      2425  TIP3      H2             38.1865047201       64.1049193743       72.9874594388  TIP3      2289            0.0000000000
     24242      2426  TIP3      OH2            55.4179875290       59.7039170547       79.1378509319  TIP3      2290            0.0000000000
     24243      2426  TIP3      H1             54.9913461606       59.7991794017       80.0166206208  TIP3      2290            0.0000000000
     24244      2426  TIP3      H2             54.6123179324       59.6536960542       78.5460437979  TIP3      2290            0.0000000000
     24245      2427  TIP3      OH2            55.4019006569       58.8119141093       64.4242343952  TIP3      2291            0.0000000000
     24246      2427  TIP3      H1             55.6609928867       58.1296054960       63.7802703683  TIP3      2291            0.0000000000
     24247      2427  TIP3      H2             56.1611698018       59.3987228474       64.3890540025  TIP3      2291            0.0000000000
     24248      2428  TIP3      OH2            38.4424651188       59.1208508295       67.4969329355  TIP3      2292            0.0000000000
     24249      2428  TIP3      H1             37.5657737122       58.7493828990       67.3556113076  TIP3      2292            0.0000000000
     24250      2428  TIP3      H2             38.5470332829       59.7310835867       66.7276565439  TIP3      2292            0.0000000000
     24251      2429  TIP3      OH2            37.9084254553       57.6668252225       75.3149215261  TIP3      2293            0.0000000000
     24252      2429  TIP3      H1             37.4194595202       57.2586797220       76.0441260461  TIP3      2293            0.0000000000
     24253      2429  TIP3      H2             37.3088324678       58.3677792614       75.0016378523  TIP3      2293            0.0000000000
     24254      2430  TIP3      OH2            54.5266964753       56.8224743514       77.2778962304  TIP3      2294            0.0000000000
     24255      2430  TIP3      H1             53.8615881692       57.3013306174       76.7666922444  TIP3      2294            0.0000000000
     24256      2430  TIP3      H2             54.6375444938       55.9852926105       76.7843584956  TIP3      2294            0.0000000000
     24257      2431  TIP3      OH2            47.6727579105       58.1369356984       71.8778046913  TIP3      2295            0.0000000000
     24258      2431  TIP3      H1             46.7888598276       57.7391842780       72.0540801404  TIP3      2295            0.0000000000
     24259      2431  TIP3      H2             48.1138135348       57.3878811203       71.4704686494  TIP3      2295            0.0000000000
     24260      2432  TIP3      OH2            53.4715915913       56.6617957775       71.3668971021  TIP3      2296            0.0000000000
     24261      2432  TIP3      H1             54.0825039753       57.3208841060       70.9588440507  TIP3      2296            0.0000000000
     24262      2432  TIP3      H2             52.6150067299       56.9193684878       70.9539464392  TIP3      2296            0.0000000000
     24263      2433  TIP3      OH2            55.1663703362       58.2013685267       69.9798116348  TIP3      2297            0.0000000000
     24264      2433  TIP3      H1             55.8295559778       57.5914638896       69.5988484368  TIP3      2297            0.0000000000
     24265      2433  TIP3      H2             55.6965509521       59.0405751398       70.0058957750  TIP3      2297            0.0000000000
     24266      2434  TIP3      OH2            40.5342647807       56.8157776242       69.7627175119  TIP3      2298            0.0000000000
     24267      2434  TIP3      H1             39.6662396299       56.7956642151       69.3179793711  TIP3      2298            0.0000000000
     24268      2434  TIP3      H2             40.9366848072       55.9545174887       69.4919879377  TIP3      2298            0.0000000000
     24269      2435  TIP3      OH2            39.4588039537       57.4943776010       65.5882158987  TIP3      2299            0.0000000000
     24270      2435  TIP3      H1             38.8052532318       57.8631868293       64.9717226121  TIP3      2299            0.0000000000
     24271      2435  TIP3      H2             39.3253422494       58.0863062354       66.3676408754  TIP3      2299            0.0000000000
     24272      2436  TIP3      OH2            44.8416991864       56.8003433299       69.3931057245  TIP3      2300            0.0000000000
     24273      2436  TIP3      H1             45.7113684330       57.1881144206       69.2525879895  TIP3      2300            0.0000000000
     24274      2436  TIP3      H2             44.6971543887       56.9865017056       70.3335213012  TIP3      2300            0.0000000000
     24275      2437  TIP3      OH2            50.9464013684       57.0738900135       70.4528732521  TIP3      2301            0.0000000000
     24276      2437  TIP3      H1             50.3919679734       57.2458105009       69.6858629567  TIP3      2301            0.0000000000
     24277      2437  TIP3      H2             50.3968488287       56.4274033330       70.9545250283  TIP3      2301            0.0000000000
     24278      2438  TIP3      OH2            51.6485245050       57.2198781915       66.3619481832  TIP3      2302            0.0000000000
     24279      2438  TIP3      H1             50.9856715999       57.9271988122       66.4595821425  TIP3      2302            0.0000000000
     24280      2438  TIP3      H2             51.2028909649       56.4489335724       66.7966403566  TIP3      2302            0.0000000000
     24281      2439  TIP3      OH2            46.0517078263       59.3791291726       66.4789603848  TIP3      2303            0.0000000000
     24282      2439  TIP3      H1             46.5370291938       58.9252147382       67.1962276585  TIP3      2303            0.0000000000
     24283      2439  TIP3      H2             46.1384374610       60.3149702210       66.7486762018  TIP3      2303            0.0000000000
     24284      2440  TIP3      OH2            40.3155276361       57.6517883216       78.8235119162  TIP3      2304            0.0000000000
     24285      2440  TIP3      H1             39.8697344784       56.8008467735       79.0376605089  TIP3      2304            0.0000000000
     24286      2440  TIP3      H2             41.1005757387       57.6102226037       79.4086604851  TIP3      2304            0.0000000000
     24287      2441  TIP3      OH2            42.3930880086       57.3151219900       80.6334099795  TIP3      2305            0.0000000000
     24288      2441  TIP3      H1             43.1322501520       56.8018486152       80.2722215978  TIP3      2305            0.0000000000
     24289      2441  TIP3      H2             41.9017155511       56.6164634681       81.1206379210  TIP3      2305            0.0000000000
     24290      2442  TIP3      OH2            50.9112276421       56.3135856916       81.0480642579  TIP3      2306            0.0000000000
     24291      2442  TIP3      H1             51.0627360890       55.9881288455       81.9600086561  TIP3      2306            0.0000000000
     24292      2442  TIP3      H2             51.8105193796       56.1656333848       80.6740730245  TIP3      2306            0.0000000000
     24293      2443  TIP3      OH2            59.4559867304       65.1631538985       73.7548032244  TIP3      2307            0.0000000000
     24294      2443  TIP3      H1             59.7879748421       64.3268692135       74.1341504344  TIP3      2307            0.0000000000
     24295      2443  TIP3      H2             59.6570522292       65.7723801868       74.4903021250  TIP3      2307            0.0000000000
     24296      2444  TIP3      OH2            57.7350738288       63.2257939998       68.0486936285  TIP3      2308            0.0000000000
     24297      2444  TIP3      H1             57.4897132395       64.1137087736       68.3643564583  TIP3      2308            0.0000000000
     24298      2444  TIP3      H2             56.8832720396       62.9606229249       67.6417013390  TIP3      2308            0.0000000000
     24299      2445  TIP3      OH2            57.3243492873       65.3164909414       70.6009327701  TIP3      2309            0.0000000000
     24300      2445  TIP3      H1             57.8642888014       64.5688191229       70.9293669022  TIP3      2309            0.0000000000
     24301      2445  TIP3      H2             57.9531897650       66.0486745402       70.7054968145  TIP3      2309            0.0000000000
     24302      2446  TIP3      OH2            61.9093938967       60.3717799975       70.8173788251  TIP3      2310            0.0000000000
     24303      2446  TIP3      H1             62.0980786634       61.1638888141       70.2659507263  TIP3      2310            0.0000000000
     24304      2446  TIP3      H2             61.5360072875       59.7716959246       70.1268359097  TIP3      2310            0.0000000000
     24305      2447  TIP3      OH2            58.8873757316       62.9651449047       71.3370063214  TIP3      2311            0.0000000000
     24306      2447  TIP3      H1             59.4898287384       62.5339452863       71.9687299276  TIP3      2311            0.0000000000
     24307      2447  TIP3      H2             59.1733745470       62.5039427238       70.5212754999  TIP3      2311            0.0000000000
     24308      2448  TIP3      OH2            64.3845140015       64.0326057354       70.5794249427  TIP3      2312            0.0000000000
     24309      2448  TIP3      H1             65.1580020249       63.5982457130       70.9811210672  TIP3      2312            0.0000000000
     24310      2448  TIP3      H2             63.7551440401       63.3114380040       70.3778867249  TIP3      2312            0.0000000000
     24311      2449  TIP3      OH2            60.7693709758       59.4162439753       74.8716223066  TIP3      2313            0.0000000000
     24312      2449  TIP3      H1             60.4905273382       59.9606358164       74.1064397020  TIP3      2313            0.0000000000
     24313      2449  TIP3      H2             60.1334033617       59.7544245517       75.5456915880  TIP3      2313            0.0000000000
     24314      2450  TIP3      OH2            60.7481225161       61.5353019352       72.9466749566  TIP3      2314            0.0000000000
     24315      2450  TIP3      H1             61.5209352400       61.8555447888       73.4504512590  TIP3      2314            0.0000000000
     24316      2450  TIP3      H2             61.1833599239       61.1970332637       72.1250029480  TIP3      2314            0.0000000000
     24317      2451  TIP3      OH2            64.5935895010       57.0126280856       72.0804747585  TIP3      2315            0.0000000000
     24318      2451  TIP3      H1             64.6713782763       56.3004348607       72.7204217839  TIP3      2315            0.0000000000
     24319      2451  TIP3      H2             63.7908968256       57.4606111611       72.4416740947  TIP3      2315            0.0000000000
     24320      2452  TIP3      OH2            62.5675154735       64.9280727714       73.4948871653  TIP3      2316            0.0000000000
     24321      2452  TIP3      H1             63.3092337604       64.7104982980       72.9073908659  TIP3      2316            0.0000000000
     24322      2452  TIP3      H2             62.3773925801       65.8395807722       73.1928008535  TIP3      2316            0.0000000000
     24323      2453  TIP3      OH2            60.4931251247        0.2103320068       76.6257262372  TIP3      2317            0.0000000000
     24324      2453  TIP3      H1             60.2735969558        0.9863080157       77.1685646471  TIP3      2317            0.0000000000
     24325      2453  TIP3      H2             60.0221960431       -0.4860380958       77.1104951394  TIP3      2317            0.0000000000
     24326      2454  TIP3      OH2            60.7192122457       65.9509638069       67.2950559067  TIP3      2318            0.0000000000
     24327      2454  TIP3      H1             60.9425437165       66.4189807445       66.4746794859  TIP3      2318            0.0000000000
     24328      2454  TIP3      H2             60.8177055230       65.0300073122       67.0233526789  TIP3      2318            0.0000000000
     24329      2455  TIP3      OH2            62.3208941241       58.0544767781       73.1761461898  TIP3      2319            0.0000000000
     24330      2455  TIP3      H1             61.5432120510       58.0182500076       72.5827957199  TIP3      2319            0.0000000000
     24331      2455  TIP3      H2             61.8977252298       58.3855541067       73.9993714173  TIP3      2319            0.0000000000
     24332      2456  TIP3      OH2            62.5313725133       62.6282789697       74.8178898707  TIP3      2320            0.0000000000
     24333      2456  TIP3      H1             61.6956275445       62.7099441128       75.3130928184  TIP3      2320            0.0000000000
     24334      2456  TIP3      H2             62.5151570668       63.4679659265       74.2886946373  TIP3      2320            0.0000000000
     24335      2457  TIP3      OH2            62.4045786811       62.5204268232       69.0960114234  TIP3      2321            0.0000000000
     24336      2457  TIP3      H1             61.4461991560       62.4130819860       68.9192227142  TIP3      2321            0.0000000000
     24337      2457  TIP3      H2             62.7955407415       62.4667527861       68.1919374329  TIP3      2321            0.0000000000
     24338      2458  TIP3      OH2            59.6354116697       63.0044354747       75.6323602447  TIP3      2322            0.0000000000
     24339      2458  TIP3      H1             59.9775139412       63.0969095456       76.5334079453  TIP3      2322            0.0000000000
     24340      2458  TIP3      H2             59.3162643486       62.0684430750       75.6562899750  TIP3      2322            0.0000000000
     24341      2459  TIP3      OH2            57.1021945190       59.8990277517       70.0822182704  TIP3      2323            0.0000000000
     24342      2459  TIP3      H1             57.7301720842       59.7670227642       70.8116798162  TIP3      2323            0.0000000000
     24343      2459  TIP3      H2             57.6454000801       59.8535939680       69.2871139685  TIP3      2323            0.0000000000
     24344      2460  TIP3      OH2            58.0296649839       61.0904113748       65.3471317517  TIP3      2324            0.0000000000
     24345      2460  TIP3      H1             58.9684424530       60.9206431941       65.1063827167  TIP3      2324            0.0000000000
     24346      2460  TIP3      H2             58.1448167971       61.7185115265       66.0856458929  TIP3      2324            0.0000000000
     24347      2461  TIP3      OH2            64.4369817771       60.3472164325       70.1065409054  TIP3      2325            0.0000000000
     24348      2461  TIP3      H1             63.5699266420       60.2036707318       70.5422619760  TIP3      2325            0.0000000000
     24349      2461  TIP3      H2             65.0236316970       60.4976461483       70.8584892028  TIP3      2325            0.0000000000
     24350      2462  TIP3      OH2            59.8762302142       61.7282609554       69.1156869734  TIP3      2326            0.0000000000
     24351      2462  TIP3      H1             59.1430970773       62.1400937556       68.6050114147  TIP3      2326            0.0000000000
     24352      2462  TIP3      H2             60.0055218760       60.8670155531       68.6851100468  TIP3      2326            0.0000000000
     24353      2463  TIP3      OH2            63.4511320840       62.5342400502       66.3509198060  TIP3      2327            0.0000000000
     24354      2463  TIP3      H1             64.3792459172       62.6332815206       66.6260736891  TIP3      2327            0.0000000000
     24355      2463  TIP3      H2             63.5188214804       62.9350862885       65.4608924433  TIP3      2327            0.0000000000
     24356      2464  TIP3      OH2            61.1832755970       58.7560787486       68.7844899342  TIP3      2328            0.0000000000
     24357      2464  TIP3      H1             60.3658828557       58.2752711539       69.0501722106  TIP3      2328            0.0000000000
     24358      2464  TIP3      H2             61.5531442877       58.1920918977       68.0853382961  TIP3      2328            0.0000000000
     24359      2465  TIP3      OH2            64.9127373757       61.3827225826       74.8747487598  TIP3      2329            0.0000000000
     24360      2465  TIP3      H1             64.2026165842       62.0312759767       75.0293337647  TIP3      2329            0.0000000000
     24361      2465  TIP3      H2             65.5707254110       61.9601442856       74.4405673380  TIP3      2329            0.0000000000
     24362      2466  TIP3      OH2            57.5150840021       65.5574599884       77.5582433697  TIP3      2330            0.0000000000
     24363      2466  TIP3      H1             57.5309634006       64.6409073968       77.8795656635  TIP3      2330            0.0000000000
     24364      2466  TIP3      H2             57.1813159135       65.4882542170       76.6497029807  TIP3      2330            0.0000000000
     24365      2467  TIP3      OH2            64.6154582822       64.3492379248       79.1191266506  TIP3      2331            0.0000000000
     24366      2467  TIP3      H1             63.7606453101       64.1656816622       78.6778078375  TIP3      2331            0.0000000000
     24367      2467  TIP3      H2             65.2111626237       63.8167566282       78.5777811158  TIP3      2331            0.0000000000
     24368      2468  TIP3      OH2            59.2359874190       60.5094967766       76.8009537983  TIP3      2332            0.0000000000
     24369      2468  TIP3      H1             58.6090418586       60.8424258264       77.4805986475  TIP3      2332            0.0000000000
     24370      2468  TIP3      H2             59.3840555863       59.6334754892       77.1977419218  TIP3      2332            0.0000000000
     24371      2469  TIP3      OH2            65.7121570898       61.5649981595       67.7276159900  TIP3      2333            0.0000000000
     24372      2469  TIP3      H1             66.0347935714       60.7266213342       67.3520954748  TIP3      2333            0.0000000000
     24373      2469  TIP3      H2             65.2382501151       61.2671630017       68.5267753344  TIP3      2333            0.0000000000
     24374      2470  TIP3      OH2            61.2605746664       59.5145369647       64.9120994685  TIP3      2334            0.0000000000
     24375      2470  TIP3      H1             61.3096391633       60.1187766367       64.1445795100  TIP3      2334            0.0000000000
     24376      2470  TIP3      H2             61.9959423406       59.8561627354       65.4330478004  TIP3      2334            0.0000000000
     24377      2471  TIP3      OH2            59.7060727715       57.3723004978       72.2998554767  TIP3      2335            0.0000000000
     24378      2471  TIP3      H1             59.6215406455       57.2335366394       71.3251467831  TIP3      2335            0.0000000000
     24379      2471  TIP3      H2             59.4636039308       56.4892602068       72.6480086167  TIP3      2335            0.0000000000
     24380      2472  TIP3      OH2            59.4819695026       64.3321083610       79.6908402173  TIP3      2336            0.0000000000
     24381      2472  TIP3      H1             59.3878820874       63.4222528257       79.9954814073  TIP3      2336            0.0000000000
     24382      2472  TIP3      H2             59.5459173924       64.8078229398       80.5358595350  TIP3      2336            0.0000000000
     24383      2473  TIP3      OH2            62.6772171583       63.9412084879       77.3110052708  TIP3      2337            0.0000000000
     24384      2473  TIP3      H1             62.0718880174       64.5864660492       76.9065677778  TIP3      2337            0.0000000000
     24385      2473  TIP3      H2             63.4519982234       64.0465229711       76.7178498972  TIP3      2337            0.0000000000
     24386      2474  TIP3      OH2            64.4529915388       64.5172623580       64.0931462997  TIP3      2338            0.0000000000
     24387      2474  TIP3      H1             63.7203443211       64.0593666729       63.6200783541  TIP3      2338            0.0000000000
     24388      2474  TIP3      H2             65.0249620493       64.6913979032       63.3112147590  TIP3      2338            0.0000000000
     24389      2475  TIP3      OH2            63.4619666447       61.3851021099       78.2485701418  TIP3      2339            0.0000000000
     24390      2475  TIP3      H1             63.5811189469       60.7810033282       77.4848244709  TIP3      2339            0.0000000000
     24391      2475  TIP3      H2             62.9549311449       62.1164483930       77.8423158163  TIP3      2339            0.0000000000
     24392      2476  TIP3      OH2            63.2867441362       59.4896197120       75.9399991744  TIP3      2340            0.0000000000
     24393      2476  TIP3      H1             63.8574057435       60.1096372116       75.4231913972  TIP3      2340            0.0000000000
     24394      2476  TIP3      H2             62.4131099919       59.6119600797       75.5218548582  TIP3      2340            0.0000000000
     24395      2477  TIP3      OH2            65.2478763173       65.0483357770       76.1495763159  TIP3      2341            0.0000000000
     24396      2477  TIP3      H1             65.7487541989       65.5884747659       75.4940868253  TIP3      2341            0.0000000000
     24397      2477  TIP3      H2             64.6445807939       65.7558846270       76.4705769292  TIP3      2341            0.0000000000
     24398      2478  TIP3      OH2            62.0112604402       62.3900092499       80.3314107646  TIP3      2342            0.0000000000
     24399      2478  TIP3      H1             61.1501111043       61.9868758793       80.0981638461  TIP3      2342            0.0000000000
     24400      2478  TIP3      H2             62.6061299532       61.9929108927       79.6557425477  TIP3      2342            0.0000000000
     24401      2479  TIP3      OH2            63.9518256556       56.9099346895       75.9445908994  TIP3      2343            0.0000000000
     24402      2479  TIP3      H1             63.7427238823       57.8712251797       76.0293143676  TIP3      2343            0.0000000000
     24403      2479  TIP3      H2             63.0548364716       56.5447802481       75.8088482448  TIP3      2343            0.0000000000
     24404      2480  TIP3      OH2            65.4422593681       60.9961650206       80.2064601433  TIP3      2344            0.0000000000
     24405      2480  TIP3      H1             64.9246745064       60.7317937024       80.9895595948  TIP3      2344            0.0000000000
     24406      2480  TIP3      H2             64.7852445823       60.8462409130       79.5052895431  TIP3      2344            0.0000000000
     24407      2481  TIP3      OH2            59.7327903238       60.7632505948       80.2232952759  TIP3      2345            0.0000000000
     24408      2481  TIP3      H1             59.9278889987       59.8676310703       79.9030491686  TIP3      2345            0.0000000000
     24409      2481  TIP3      H2             59.6283573853       60.6097356547       81.1860376627  TIP3      2345            0.0000000000
     24410      2482  TIP3      OH2            64.6516792312       56.6397729326       78.5344923464  TIP3      2346            0.0000000000
     24411      2482  TIP3      H1             65.4059453613       56.0265892214       78.6054094913  TIP3      2346            0.0000000000
     24412      2482  TIP3      H2             64.4247735766       56.6423338330       77.5833920441  TIP3      2346            0.0000000000
     24413      2483  TIP3      OH2            64.6780506936       57.6082867543       81.0039802153  TIP3      2347            0.0000000000
     24414      2483  TIP3      H1             64.4831596011       57.3396091747       80.0755077613  TIP3      2347            0.0000000000
     24415      2483  TIP3      H2             64.1955610476       58.4564675171       81.0755792762  TIP3      2347            0.0000000000
     24416      2484  TIP3      OH2            57.5443015972       61.4554386875       78.8477431520  TIP3      2348            0.0000000000
     24417      2484  TIP3      H1             58.2284349927       61.1884656956       79.5082584371  TIP3      2348            0.0000000000
     24418      2484  TIP3      H2             56.9578003220       60.6654568004       78.8606755674  TIP3      2348            0.0000000000
     24419      2485  TIP3      OH2            58.4261667566       59.7678561880       72.6278746438  TIP3      2349            0.0000000000
     24420      2485  TIP3      H1             58.7557788363       58.8405247263       72.5803621077  TIP3      2349            0.0000000000
     24421      2485  TIP3      H2             59.2346750017       60.2923537250       72.5030537229  TIP3      2349            0.0000000000
     24422      2486  TIP3      OH2            56.8523707433       63.0045898370       73.1672587133  TIP3      2350            0.0000000000
     24423      2486  TIP3      H1             57.3825840864       62.5504837856       72.4877502061  TIP3      2350            0.0000000000
     24424      2486  TIP3      H2             57.3762662873       63.8200348198       73.2218922483  TIP3      2350            0.0000000000
     24425      2487  TIP3      OH2            57.3161915332       59.0952806780       67.0720191093  TIP3      2351            0.0000000000
     24426      2487  TIP3      H1             56.3676839937       58.9264344435       67.0815392293  TIP3      2351            0.0000000000
     24427      2487  TIP3      H2             57.4622503157       59.5127902158       66.2084966222  TIP3      2351            0.0000000000
     24428      2488  TIP3      OH2            56.9844105498       57.7299474350       75.6766159768  TIP3      2352            0.0000000000
     24429      2488  TIP3      H1             56.2800584192       57.3004383519       76.1892255927  TIP3      2352            0.0000000000
     24430      2488  TIP3      H2             56.5200582928       58.4783267274       75.2708212357  TIP3      2352            0.0000000000
     24431      2489  TIP3      OH2            59.1910353375       57.1325438294       69.5973711612  TIP3      2353            0.0000000000
     24432      2489  TIP3      H1             58.3236531895       56.9415772000       69.1754310661  TIP3      2353            0.0000000000
     24433      2489  TIP3      H2             59.6732840132       56.2773543988       69.4437650954  TIP3      2353            0.0000000000
     24434      2490  TIP3      OH2            64.0299763752       56.9753991072       69.4363497854  TIP3      2354            0.0000000000
     24435      2490  TIP3      H1             63.9199691990       57.8650287605       69.0594683531  TIP3      2354            0.0000000000
     24436      2490  TIP3      H2             64.2813663094       57.1615471287       70.3727733756  TIP3      2354            0.0000000000
     24437      2491  TIP3      OH2            64.2325310004       59.2585259454       66.5203264667  TIP3      2355            0.0000000000
     24438      2491  TIP3      H1             64.4052405489       59.0229705973       65.5701208139  TIP3      2355            0.0000000000
     24439      2491  TIP3      H2             63.9245504037       60.1738083798       66.4112018066  TIP3      2355            0.0000000000
     24440      2492  TIP3      OH2            59.0678956585       58.0583665482       78.9746806628  TIP3      2356            0.0000000000
     24441      2492  TIP3      H1             58.3933145556       57.3623232545       78.9865052836  TIP3      2356            0.0000000000
     24442      2492  TIP3      H2             59.7397325396       57.6962993125       79.5924320411  TIP3      2356            0.0000000000
     24443      2493  TIP3      OH2            61.1445819320       57.0209740275       80.6868280107  TIP3      2357            0.0000000000
     24444      2493  TIP3      H1             61.9940644102       56.6104819442       80.4460435795  TIP3      2357            0.0000000000
     24445      2493  TIP3      H2             60.7118899650       56.2702796872       81.1432859464  TIP3      2357            0.0000000000
     24446      2494  TIP3      OH2            10.6772503137        8.1994835143       82.4569765097  TIP3      2358            0.0000000000
     24447      2494  TIP3      H1             11.5074302039        8.3024750188       82.9789045706  TIP3      2358            0.0000000000
     24448      2494  TIP3      H2             10.7867934843        7.2923763792       82.1357036086  TIP3      2358            0.0000000000
     24449      2495  TIP3      OH2            13.0591363038        8.5475538657       83.6810465206  TIP3      2359            0.0000000000
     24450      2495  TIP3      H1             13.2729391219        9.0431462500       84.5035171233  TIP3      2359            0.0000000000
     24451      2495  TIP3      H2             13.5507718537        9.1110690981       83.0311620330  TIP3      2359            0.0000000000
     24452      2496  TIP3      OH2            16.1021492340        0.7185186526       84.5249123553  TIP3      2360            0.0000000000
     24453      2496  TIP3      H1             15.5136425373        0.4346440372       83.8168097310  TIP3      2360            0.0000000000
     24454      2496  TIP3      H2             16.7595510661        1.2786306806       84.0578079557  TIP3      2360            0.0000000000
     24455      2497  TIP3      OH2            17.5752191886       14.8330922046       82.4066606580  TIP3      2361            0.0000000000
     24456      2497  TIP3      H1             17.8283183539       15.7131331226       82.7502294147  TIP3      2361            0.0000000000
     24457      2497  TIP3      H2             18.4794959093       14.5457467218       82.1557519827  TIP3      2361            0.0000000000
     24458      2498  TIP3      OH2            13.6953525063       17.1268500834       83.2779150825  TIP3      2362            0.0000000000
     24459      2498  TIP3      H1             13.9145050037       16.5153186389       82.5435001860  TIP3      2362            0.0000000000
     24460      2498  TIP3      H2             14.1693585500       16.6744538868       84.0045421955  TIP3      2362            0.0000000000
     24461      2499  TIP3      OH2            14.5210153952       10.2402536325       82.3530988715  TIP3      2363            0.0000000000
     24462      2499  TIP3      H1             14.4204654564       10.2045522697       81.3781784247  TIP3      2363            0.0000000000
     24463      2499  TIP3      H2             15.4835787003       10.3389395496       82.4643467491  TIP3      2363            0.0000000000
     24464      2500  TIP3      OH2            10.5207306457        3.1715766844       82.6061898490  TIP3      2364            0.0000000000
     24465      2500  TIP3      H1             10.0468304318        4.0038471044       82.5218464485  TIP3      2364            0.0000000000
     24466      2500  TIP3      H2              9.8342959494        2.5151074073       82.3667543661  TIP3      2364            0.0000000000
     24467      2501  TIP3      OH2             6.6776152049        3.7239493884       81.9100431659  TIP3      2365            0.0000000000
     24468      2501  TIP3      H1              6.0904075028        3.4205085072       82.6288957511  TIP3      2365            0.0000000000
     24469      2501  TIP3      H2              6.1582614733        4.4810456160       81.5242161820  TIP3      2365            0.0000000000
     24470      2502  TIP3      OH2             1.5396565955        4.2185843643       84.7727896751  TIP3      2366            0.0000000000
     24471      2502  TIP3      H1              2.1441680465        4.6660774713       84.1551289709  TIP3      2366            0.0000000000
     24472      2502  TIP3      H2              0.6735435569        4.3848214981       84.3907671679  TIP3      2366            0.0000000000
     24473      2503  TIP3      OH2             5.6223630933        6.5708008423       83.4897782175  TIP3      2367            0.0000000000
     24474      2503  TIP3      H1              4.7046816636        6.7185575820       83.2090862144  TIP3      2367            0.0000000000
     24475      2503  TIP3      H2              6.0931440576        6.8917318489       82.7085200979  TIP3      2367            0.0000000000
     24476      2504  TIP3      OH2            13.1378381852        3.4253744550       83.4394869603  TIP3      2368            0.0000000000
     24477      2504  TIP3      H1             12.1600637854        3.3642037758       83.4192858336  TIP3      2368            0.0000000000
     24478      2504  TIP3      H2             13.2460758461        4.1000210452       84.1480017840  TIP3      2368            0.0000000000
     24479      2505  TIP3      OH2            13.3858779364        6.0433821288       84.5319897048  TIP3      2369            0.0000000000
     24480      2505  TIP3      H1             14.1583852704        6.0497546207       85.1238765055  TIP3      2369            0.0000000000
     24481      2505  TIP3      H2             13.5011760614        6.8542344470       84.0011721449  TIP3      2369            0.0000000000
     24482      2506  TIP3      OH2            10.8693349788       12.5759068192       84.1015727760  TIP3      2370            0.0000000000
     24483      2506  TIP3      H1             10.3152933180       13.3775758823       84.1361822648  TIP3      2370            0.0000000000
     24484      2506  TIP3      H2             10.2316226886       11.8869470822       84.3234691894  TIP3      2370            0.0000000000
     24485      2507  TIP3      OH2            18.3831997555        6.2731343945       84.4789668854  TIP3      2371            0.0000000000
     24486      2507  TIP3      H1             17.7180639667        6.0143629634       83.8156136219  TIP3      2371            0.0000000000
     24487      2507  TIP3      H2             18.5022791855        7.2169185895       84.2152831988  TIP3      2371            0.0000000000
     24488      2508  TIP3      OH2             1.5152272805        9.7781542943       82.2457486978  TIP3      2372            0.0000000000
     24489      2508  TIP3      H1              2.0853726258       10.2333478426       82.9122864040  TIP3      2372            0.0000000000
     24490      2508  TIP3      H2              0.7525059842        9.5831843481       82.8120602546  TIP3      2372            0.0000000000
     24491      2509  TIP3      OH2            14.5701098688       13.1159177648       82.9236464605  TIP3      2373            0.0000000000
     24492      2509  TIP3      H1             14.7951510875       13.0871554578       83.8655384044  TIP3      2373            0.0000000000
     24493      2509  TIP3      H2             13.6504613466       12.7859637412       82.9245975973  TIP3      2373            0.0000000000
     24494      2510  TIP3      OH2            18.4881128914       17.1685427582       83.1623169035  TIP3      2374            0.0000000000
     24495      2510  TIP3      H1             19.2779728283       17.7224371054       83.2213418626  TIP3      2374            0.0000000000
     24496      2510  TIP3      H2             17.8512394457       17.7125403192       83.6648215905  TIP3      2374            0.0000000000
     24497      2511  TIP3      OH2             8.4969209640       14.0720420484       81.2619045984  TIP3      2375            0.0000000000
     24498      2511  TIP3      H1              8.1653580276       13.5079413626       80.5470442974  TIP3      2375            0.0000000000
     24499      2511  TIP3      H2              7.9429317285       13.7602149745       82.0012117948  TIP3      2375            0.0000000000
     24500      2512  TIP3      OH2             6.9107131984       13.1568067058       83.8997251653  TIP3      2376            0.0000000000
     24501      2512  TIP3      H1              7.7286103156       13.3999596317       84.3488652295  TIP3      2376            0.0000000000
     24502      2512  TIP3      H2              6.5001717979       14.0332240991       83.8292386973  TIP3      2376            0.0000000000
     24503      2513  TIP3      OH2             3.0474814237       10.5164136742       84.3583419076  TIP3      2377            0.0000000000
     24504      2513  TIP3      H1              3.0310260456       10.4815872187       85.3226023455  TIP3      2377            0.0000000000
     24505      2513  TIP3      H2              4.0012246544       10.6202664314       84.2165559975  TIP3      2377            0.0000000000
     24506      2514  TIP3      OH2             9.2623863451       15.0388231118       84.2048411857  TIP3      2378            0.0000000000
     24507      2514  TIP3      H1              8.4459912526       15.5688210330       84.2435038723  TIP3      2378            0.0000000000
     24508      2514  TIP3      H2              9.8736345658       15.6765869280       83.7838379655  TIP3      2378            0.0000000000
     24509      2515  TIP3      OH2             6.3310568850       15.7161701789       84.7857838279  TIP3      2379            0.0000000000
     24510      2515  TIP3      H1              6.3479521268       16.3982474562       84.0880176493  TIP3      2379            0.0000000000
     24511      2515  TIP3      H2              6.2511153114       16.2959226224       85.5638969107  TIP3      2379            0.0000000000
     24512      2516  TIP3      OH2             5.4156664804        2.8945636008       84.2440296225  TIP3      2380            0.0000000000
     24513      2516  TIP3      H1              4.9666990747        3.0609719962       85.0853827891  TIP3      2380            0.0000000000
     24514      2516  TIP3      H2              6.3132264955        3.2236617248       84.4216211990  TIP3      2380            0.0000000000
     24515      2517  TIP3      OH2             3.5612473368       13.7509489526       82.9456084890  TIP3      2381            0.0000000000
     24516      2517  TIP3      H1              3.6900666942       14.2876000154       83.7420823852  TIP3      2381            0.0000000000
     24517      2517  TIP3      H2              4.4736723231       13.6145981761       82.6491348835  TIP3      2381            0.0000000000
     24518      2518  TIP3      OH2             2.4089942117        6.5552974723       83.0664408000  TIP3      2382            0.0000000000
     24519      2518  TIP3      H1              2.5478219806        7.4876668231       82.8649480414  TIP3      2382            0.0000000000
     24520      2518  TIP3      H2              1.8788315591        6.2478700991       82.3123415452  TIP3      2382            0.0000000000
     24521      2519  TIP3      OH2            10.2723428448       16.1466599784       81.4188216575  TIP3      2383            0.0000000000
     24522      2519  TIP3      H1              9.7097006576       15.3367375099       81.3622788712  TIP3      2383            0.0000000000
     24523      2519  TIP3      H2             11.0659920224       15.8192509332       80.9418922512  TIP3      2383            0.0000000000
     24524      2520  TIP3      OH2            14.4932585119       15.3145343855       81.2927492106  TIP3      2384            0.0000000000
     24525      2520  TIP3      H1             14.6458336993       14.5940362696       81.9502672611  TIP3      2384            0.0000000000
     24526      2520  TIP3      H2             15.3611459002       15.3287898947       80.8434478478  TIP3      2384            0.0000000000
     24527      2521  TIP3      OH2             5.6875913422       11.3378885792       81.2846203318  TIP3      2385            0.0000000000
     24528      2521  TIP3      H1              5.7868522551       10.7763577287       82.0878195823  TIP3      2385            0.0000000000
     24529      2521  TIP3      H2              6.5310990108       11.1775588625       80.8191255830  TIP3      2385            0.0000000000
     24530      2522  TIP3      OH2            11.6453826599       12.7578624911       81.2913328758  TIP3      2386            0.0000000000
     24531      2522  TIP3      H1             11.4499726955       12.6861175021       82.2489824118  TIP3      2386            0.0000000000
     24532      2522  TIP3      H2             11.4309545963       11.8429099875       80.9867304450  TIP3      2386            0.0000000000
     24533      2523  TIP3      OH2             6.0698366190        9.5400842559       83.2458295564  TIP3      2387            0.0000000000
     24534      2523  TIP3      H1              6.1470573632        9.2135704204       84.1559579222  TIP3      2387            0.0000000000
     24535      2523  TIP3      H2              6.6946040774        8.9582714478       82.7537743837  TIP3      2387            0.0000000000
     24536      2524  TIP3      OH2             7.6709441358        8.2021893009       81.5747677090  TIP3      2388            0.0000000000
     24537      2524  TIP3      H1              7.3182812883        8.0953318000       80.6677508423  TIP3      2388            0.0000000000
     24538      2524  TIP3      H2              8.5628537617        8.5284141620       81.3556544229  TIP3      2388            0.0000000000
     24539      2525  TIP3      OH2            17.3185526616        9.9169807213       81.4170166250  TIP3      2389            0.0000000000
     24540      2525  TIP3      H1             17.1749116004        9.6209566502       80.4844395128  TIP3      2389            0.0000000000
     24541      2525  TIP3      H2             17.1209034776       10.8822960300       81.3147216493  TIP3      2389            0.0000000000
     24542      2526  TIP3      OH2             7.9765408274       17.8231577069       83.8449635346  TIP3      2390            0.0000000000
     24543      2526  TIP3      H1              8.9341141306       17.9404240024       83.6834048219  TIP3      2390            0.0000000000
     24544      2526  TIP3      H2              7.6458251349       18.5496475102       83.2837882293  TIP3      2390            0.0000000000
     24545      2527  TIP3      OH2             0.9428413770       13.0839104081       82.9118787757  TIP3      2391            0.0000000000
     24546      2527  TIP3      H1              1.9070990569       13.2756363503       82.9534010040  TIP3      2391            0.0000000000
     24547      2527  TIP3      H2              0.8419819432       12.8791660910       81.9630395476  TIP3      2391            0.0000000000
     24548      2528  TIP3      OH2            18.8071059535        8.7463897844       83.3786816080  TIP3      2392            0.0000000000
     24549      2528  TIP3      H1             18.3202279315        9.0269710938       82.5728525498  TIP3      2392            0.0000000000
     24550      2528  TIP3      H2             19.0758181279        9.6061742945       83.8025174898  TIP3      2392            0.0000000000
     24551      2529  TIP3      OH2            16.3398693058        6.2816998179       81.9736716935  TIP3      2393            0.0000000000
     24552      2529  TIP3      H1             16.9475053052        6.3677238985       81.2201383973  TIP3      2393            0.0000000000
     24553      2529  TIP3      H2             16.0867650060        5.3409977564       81.8995454793  TIP3      2393            0.0000000000
     24554      2530  TIP3      OH2            16.3758878868        3.5643547963       81.4379290129  TIP3      2394            0.0000000000
     24555      2530  TIP3      H1             16.7581656916        3.2029191618       82.2703617344  TIP3      2394            0.0000000000
     24556      2530  TIP3      H2             15.4477186368        3.2820426035       81.5029274392  TIP3      2394            0.0000000000
     24557      2531  TIP3      OH2            17.9964625134        2.2742853041       83.2271904310  TIP3      2395            0.0000000000
     24558      2531  TIP3      H1             18.5183142010        1.7340445524       82.5903016263  TIP3      2395            0.0000000000
     24559      2531  TIP3      H2             18.6324040899        3.0001743212       83.4284510962  TIP3      2395            0.0000000000
     24560      2532  TIP3      OH2             1.3912832105        1.0252900021       84.4253494902  TIP3      2396            0.0000000000
     24561      2532  TIP3      H1              1.6932479536        1.5877244856       83.6860455599  TIP3      2396            0.0000000000
     24562      2532  TIP3      H2              1.0662913065        1.7081526347       85.0326493036  TIP3      2396            0.0000000000
     24563      2533  TIP3      OH2             3.5013298274        2.0300946859       82.5814218741  TIP3      2397            0.0000000000
     24564      2533  TIP3      H1              3.8919068286        1.4364248370       81.9175113911  TIP3      2397            0.0000000000
     24565      2533  TIP3      H2              4.2546612524        2.2320384250       83.1742455593  TIP3      2397            0.0000000000
     24566      2534  TIP3      OH2            10.8845262111       17.6327378659       83.5250883007  TIP3      2398            0.0000000000
     24567      2534  TIP3      H1             11.8564361305       17.7017372758       83.5236267856  TIP3      2398            0.0000000000
     24568      2534  TIP3      H2             10.7522056564       17.2503396144       82.6240393670  TIP3      2398            0.0000000000
     24569      2535  TIP3      OH2             3.9116168156       17.6053258492       81.9910089034  TIP3      2399            0.0000000000
     24570      2535  TIP3      H1              3.4317348745       17.7267077248       82.8255556894  TIP3      2399            0.0000000000
     24571      2535  TIP3      H2              4.5049263963       16.8467431327       82.1675263326  TIP3      2399            0.0000000000
     24572      2536  TIP3      OH2            29.2532173812        7.6233156716       82.5199079844  TIP3      2400            0.0000000000
     24573      2536  TIP3      H1             30.0419311614        7.7729772861       83.0771874647  TIP3      2400            0.0000000000
     24574      2536  TIP3      H2             29.5900733264        6.9216964591       81.9296912437  TIP3      2400            0.0000000000
     24575      2537  TIP3      OH2            31.8030129024        8.6876564951       83.7893405268  TIP3      2401            0.0000000000
     24576      2537  TIP3      H1             31.6845785612        9.2195296613       84.5870509674  TIP3      2401            0.0000000000
     24577      2537  TIP3      H2             32.3965352004        9.2268314850       83.2189069994  TIP3      2401            0.0000000000
     24578      2538  TIP3      OH2            35.0322734820        0.6701663447       84.4517725707  TIP3      2402            0.0000000000
     24579      2538  TIP3      H1             34.3964784257        1.1418099863       83.9029560703  TIP3      2402            0.0000000000
     24580      2538  TIP3      H2             35.8413847041        1.1934217441       84.3101011105  TIP3      2402            0.0000000000
     24581      2539  TIP3      OH2            36.6071851395       14.8066724180       82.3789446555  TIP3      2403            0.0000000000
     24582      2539  TIP3      H1             36.9498919585       15.7186307139       82.3136686403  TIP3      2403            0.0000000000
     24583      2539  TIP3      H2             37.3401980383       14.3979736526       82.8752185848  TIP3      2403            0.0000000000
     24584      2540  TIP3      OH2            32.5343844298       17.0439069451       83.3024917400  TIP3      2404            0.0000000000
     24585      2540  TIP3      H1             32.7876132030       16.4086836788       82.5973505940  TIP3      2404            0.0000000000
     24586      2540  TIP3      H2             33.0762731574       16.6839668307       84.0397665532  TIP3      2404            0.0000000000
     24587      2541  TIP3      OH2            33.5888304844       10.2720799950       82.5423926322  TIP3      2405            0.0000000000
     24588      2541  TIP3      H1             33.2017958027       10.4046796491       81.6566545199  TIP3      2405            0.0000000000
     24589      2541  TIP3      H2             34.5018660222       10.0495177393       82.2688506915  TIP3      2405            0.0000000000
     24590      2542  TIP3      OH2            29.2513860293        3.5086809988       82.8041214341  TIP3      2406            0.0000000000
     24591      2542  TIP3      H1             28.6700527672        4.0078890305       83.3879090344  TIP3      2406            0.0000000000
     24592      2542  TIP3      H2             28.6082164237        2.8624992478       82.4190450495  TIP3      2406            0.0000000000
     24593      2543  TIP3      OH2            25.2321340976        3.7818439277       81.9839976703  TIP3      2407            0.0000000000
     24594      2543  TIP3      H1             24.4274588760        3.7644547704       82.5423481620  TIP3      2407            0.0000000000
     24595      2543  TIP3      H2             25.0410411445        4.5391804512       81.3944114636  TIP3      2407            0.0000000000
     24596      2544  TIP3      OH2            19.9787079631        3.9758980340       83.9100108207  TIP3      2408            0.0000000000
     24597      2544  TIP3      H1             20.5790907786        4.2975543292       83.2124058448  TIP3      2408            0.0000000000
     24598      2544  TIP3      H2             19.6247905859        4.8229154709       84.2524485032  TIP3      2408            0.0000000000
     24599      2545  TIP3      OH2            24.5851983534        6.7147232123       83.1039089203  TIP3      2409            0.0000000000
     24600      2545  TIP3      H1             24.2628758984        6.1822124276       82.3619114247  TIP3      2409            0.0000000000
     24601      2545  TIP3      H2             25.3654083423        7.1297002541       82.6791438350  TIP3      2409            0.0000000000
     24602      2546  TIP3      OH2            31.8610178430        3.5427874436       83.4683695940  TIP3      2410            0.0000000000
     24603      2546  TIP3      H1             30.8896578508        3.6401278765       83.3437691362  TIP3      2410            0.0000000000
     24604      2546  TIP3      H2             32.0435322705        4.2563975077       84.1175514632  TIP3      2410            0.0000000000
     24605      2547  TIP3      OH2            32.1827461361        6.0612466002       84.6215844475  TIP3      2411            0.0000000000
     24606      2547  TIP3      H1             32.9769781054        6.0792372593       85.1832897623  TIP3      2411            0.0000000000
     24607      2547  TIP3      H2             32.2926768532        6.8553677926       84.0672356504  TIP3      2411            0.0000000000
     24608      2548  TIP3      OH2            30.0317717975       12.6558146535       84.1916437300  TIP3      2412            0.0000000000
     24609      2548  TIP3      H1             29.5014059302       13.4823653529       84.1804423799  TIP3      2412            0.0000000000
     24610      2548  TIP3      H2             29.4139311593       12.0569981076       84.6337669326  TIP3      2412            0.0000000000
     24611      2549  TIP3      OH2            37.1861643747        6.2637442974       84.4832123387  TIP3      2413            0.0000000000
     24612      2549  TIP3      H1             36.5389742566        5.9368917734       83.8234960549  TIP3      2413            0.0000000000
     24613      2549  TIP3      H2             37.3048526951        7.1609977282       84.0914251141  TIP3      2413            0.0000000000
     24614      2550  TIP3      OH2            21.7396682815        8.8678189336       82.6736118993  TIP3      2414            0.0000000000
     24615      2550  TIP3      H1             22.1998460616        9.3493997292       83.4041438049  TIP3      2414            0.0000000000
     24616      2550  TIP3      H2             20.8105908746        9.0143569818       82.9077809472  TIP3      2414            0.0000000000
     24617      2551  TIP3      OH2            33.5697440063       13.1426413757       82.9087808264  TIP3      2415            0.0000000000
     24618      2551  TIP3      H1             33.2273110624       13.2990546823       83.8059724838  TIP3      2415            0.0000000000
     24619      2551  TIP3      H2             32.7973683164       12.7323572527       82.4810822655  TIP3      2415            0.0000000000
     24620      2552  TIP3      OH2            37.4408912666       17.3574186527       82.8187700395  TIP3      2416            0.0000000000
     24621      2552  TIP3      H1             38.1687379567       17.9386029853       83.0915017741  TIP3      2416            0.0000000000
     24622      2552  TIP3      H2             36.7002898505       17.7968402985       83.2753430425  TIP3      2416            0.0000000000
     24623      2553  TIP3      OH2            27.1526444946       14.0511879193       81.3924706778  TIP3      2417            0.0000000000
     24624      2553  TIP3      H1             26.9139414848       13.4305196744       80.6878895612  TIP3      2417            0.0000000000
     24625      2553  TIP3      H2             26.6927717298       13.6378606562       82.1639049840  TIP3      2417            0.0000000000
     24626      2554  TIP3      OH2            25.8770975384       13.5123935960       83.7207938135  TIP3      2418            0.0000000000
     24627      2554  TIP3      H1             25.8427383775       12.8757767897       84.4689650068  TIP3      2418            0.0000000000
     24628      2554  TIP3      H2             25.7831760365       14.3372149422       84.2421181327  TIP3      2418            0.0000000000
     24629      2555  TIP3      OH2            22.7714157548       10.4178893769       84.5033307813  TIP3      2419            0.0000000000
     24630      2555  TIP3      H1             21.9136170529       10.6608842454       84.9178496675  TIP3      2419            0.0000000000
     24631      2555  TIP3      H2             22.9842487508       11.1999234360       83.9738644514  TIP3      2419            0.0000000000
     24632      2556  TIP3      OH2            28.4293600640       14.9130967979       84.1665152067  TIP3      2420            0.0000000000
     24633      2556  TIP3      H1             27.4586664799       14.8752548275       84.0644117503  TIP3      2420            0.0000000000
     24634      2556  TIP3      H2             28.6338526892       15.8063052167       83.8401576307  TIP3      2420            0.0000000000
     24635      2557  TIP3      OH2            25.7655068805       15.8634431092       84.9107271617  TIP3      2421            0.0000000000
     24636      2557  TIP3      H1             25.7783253405       16.5472772920       84.2155967895  TIP3      2421            0.0000000000
     24637      2557  TIP3      H2             25.4728903457       16.3927218517       85.6707526315  TIP3      2421            0.0000000000
     24638      2558  TIP3      OH2            23.5404658242        3.2285017457       84.1349090034  TIP3      2422            0.0000000000
     24639      2558  TIP3      H1             23.1316769357        3.9493526891       84.6344543543  TIP3      2422            0.0000000000
     24640      2558  TIP3      H2             24.4750860493        3.3084392528       84.4496676769  TIP3      2422            0.0000000000
     24641      2559  TIP3      OH2            22.9278880667       13.1383131619       83.0915874727  TIP3      2423            0.0000000000
     24642      2559  TIP3      H1             23.6290541809       13.5121197618       83.6567102159  TIP3      2423            0.0000000000
     24643      2559  TIP3      H2             23.4883252108       12.7623558528       82.3856199531  TIP3      2423            0.0000000000
     24644      2560  TIP3      OH2            20.9110501616        6.2110805680       82.2221098735  TIP3      2424            0.0000000000
     24645      2560  TIP3      H1             21.4932556231        6.9065699927       82.5830974974  TIP3      2424            0.0000000000
     24646      2560  TIP3      H2             20.0655849535        6.6855365589       82.1684131659  TIP3      2424            0.0000000000
     24647      2561  TIP3      OH2            29.0821394587       16.1416794523       81.4504922664  TIP3      2425            0.0000000000
     24648      2561  TIP3      H1             28.5071436460       15.3457272071       81.4197202780  TIP3      2425            0.0000000000
     24649      2561  TIP3      H2             29.8824726275       15.7828681914       81.0113691513  TIP3      2425            0.0000000000
     24650      2562  TIP3      OH2            33.5889220574       15.4543224597       81.3595112928  TIP3      2426            0.0000000000
     24651      2562  TIP3      H1             33.7034281927       14.7086686296       81.9916291328  TIP3      2426            0.0000000000
     24652      2562  TIP3      H2             34.4663456110       15.4686082118       80.9186438969  TIP3      2426            0.0000000000
     24653      2563  TIP3      OH2            24.7770403882       11.4984415980       81.5561901895  TIP3      2427            0.0000000000
     24654      2563  TIP3      H1             25.2528998436       11.3678045994       82.3964231879  TIP3      2427            0.0000000000
     24655      2563  TIP3      H2             25.4313621750       11.1188904603       80.9248462784  TIP3      2427            0.0000000000
     24656      2564  TIP3      OH2            30.6422710624       12.7664695856       81.4412356782  TIP3      2428            0.0000000000
     24657      2564  TIP3      H1             30.3995730683       12.6566251496       82.3833938419  TIP3      2428            0.0000000000
     24658      2564  TIP3      H2             30.3136600899       11.9032221310       81.0759101463  TIP3      2428            0.0000000000
     24659      2565  TIP3      OH2            25.5538232451        9.6836115088       83.5469300164  TIP3      2429            0.0000000000
     24660      2565  TIP3      H1             24.6032515301        9.4591708175       83.5543526869  TIP3      2429            0.0000000000
     24661      2565  TIP3      H2             25.9086925412        9.0153558410       82.9178257060  TIP3      2429            0.0000000000
     24662      2566  TIP3      OH2            26.7245559817        8.0791953406       81.7770653599  TIP3      2430            0.0000000000
     24663      2566  TIP3      H1             26.9032132455        8.4371149121       80.8843324828  TIP3      2430            0.0000000000
     24664      2566  TIP3      H2             27.6181409585        7.7322252987       82.0102648945  TIP3      2430            0.0000000000
     24665      2567  TIP3      OH2            36.2138783397        9.9575012216       81.4894293674  TIP3      2431            0.0000000000
     24666      2567  TIP3      H1             36.1109064131        9.6638261179       80.5565030678  TIP3      2431            0.0000000000
     24667      2567  TIP3      H2             36.1468264222       10.9417009390       81.3806471607  TIP3      2431            0.0000000000
     24668      2568  TIP3      OH2            26.8905442284       18.1382586739       83.9319045644  TIP3      2432            0.0000000000
     24669      2568  TIP3      H1             27.8629250607       18.1445343250       83.8529071194  TIP3      2432            0.0000000000
     24670      2568  TIP3      H2             26.6400872750       18.6769786818       83.1535083813  TIP3      2432            0.0000000000
     24671      2569  TIP3      OH2            19.8726150552       13.6440722505       81.7393568722  TIP3      2433            0.0000000000
     24672      2569  TIP3      H1             20.5945214711       13.4311831506       82.3602253764  TIP3      2433            0.0000000000
     24673      2569  TIP3      H2             19.6446193031       12.7397205181       81.4307474484  TIP3      2433            0.0000000000
     24674      2570  TIP3      OH2            37.7891715674        8.8221737923       83.4211628940  TIP3      2434            0.0000000000
     24675      2570  TIP3      H1             37.3087395526        9.1318323219       82.6197605304  TIP3      2434            0.0000000000
     24676      2570  TIP3      H2             37.6439113182        9.5799739662       84.0095107132  TIP3      2434            0.0000000000
     24677      2571  TIP3      OH2            35.6184452351        6.1728552780       82.0589184901  TIP3      2435            0.0000000000
     24678      2571  TIP3      H1             35.5845016724        6.6635551806       81.2252253762  TIP3      2435            0.0000000000
     24679      2571  TIP3      H2             35.3383577195        5.2791475746       81.7847461000  TIP3      2435            0.0000000000
     24680      2572  TIP3      OH2            35.1149142632        3.5564165040       81.3282352673  TIP3      2436            0.0000000000
     24681      2572  TIP3      H1             35.5101594350        3.1627929297       82.1332953084  TIP3      2436            0.0000000000
     24682      2572  TIP3      H2             34.1916075643        3.2493335630       81.3875473197  TIP3      2436            0.0000000000
     24683      2573  TIP3      OH2            36.9250261063        2.1936360979       82.9347512230  TIP3      2437            0.0000000000
     24684      2573  TIP3      H1             37.5313891262        1.5792382468       82.4553031799  TIP3      2437            0.0000000000
     24685      2573  TIP3      H2             37.5500400199        2.8880461183       83.2402138262  TIP3      2437            0.0000000000
     24686      2574  TIP3      OH2            20.7610843410        0.7054509993       84.3836671331  TIP3      2438            0.0000000000
     24687      2574  TIP3      H1             21.1461736742        0.9024991869       83.4988365831  TIP3      2438            0.0000000000
     24688      2574  TIP3      H2             20.0868294040        1.4005308319       84.3638063197  TIP3      2438            0.0000000000
     24689      2575  TIP3      OH2            22.0818618347        1.8864556949       82.2854040805  TIP3      2439            0.0000000000
     24690      2575  TIP3      H1             22.8010324172        1.3723453301       81.8542331952  TIP3      2439            0.0000000000
     24691      2575  TIP3      H2             22.5610642355        2.3533782395       83.0137103589  TIP3      2439            0.0000000000
     24692      2576  TIP3      OH2            29.7723532703       17.6042533233       83.5816254720  TIP3      2440            0.0000000000
     24693      2576  TIP3      H1             30.7309377310       17.6812161557       83.4474050465  TIP3      2440            0.0000000000
     24694      2576  TIP3      H2             29.5309317287       17.1790698591       82.7244427246  TIP3      2440            0.0000000000
     24695      2577  TIP3      OH2            21.7877721572       17.3486786766       81.9573268148  TIP3      2441            0.0000000000
     24696      2577  TIP3      H1             21.6194188981       17.7429282457       82.8350340733  TIP3      2441            0.0000000000
     24697      2577  TIP3      H2             22.5068700857       16.7233587995       82.1412969445  TIP3      2441            0.0000000000
     24698      2578  TIP3      OH2            48.0680996419        7.5042953359       82.6137577221  TIP3      2442            0.0000000000
     24699      2578  TIP3      H1             48.9273825660        7.7279149886       83.0239920937  TIP3      2442            0.0000000000
     24700      2578  TIP3      H2             48.3562278902        6.7975144734       82.0119304960  TIP3      2442            0.0000000000
     24701      2579  TIP3      OH2            50.5728443642        8.6429311643       83.4038365081  TIP3      2443            0.0000000000
     24702      2579  TIP3      H1             50.1073518808        9.3002737797       83.9285902496  TIP3      2443            0.0000000000
     24703      2579  TIP3      H2             51.2597763173        9.1839339090       82.9579619280  TIP3      2443            0.0000000000
     24704      2580  TIP3      OH2            54.0344628667        0.7407605693       84.6303750950  TIP3      2444            0.0000000000
     24705      2580  TIP3      H1             53.5763895307        0.3764785780       83.8649351090  TIP3      2444            0.0000000000
     24706      2580  TIP3      H2             54.7442696075        1.2597845195       84.2081425930  TIP3      2444            0.0000000000
     24707      2581  TIP3      OH2            55.6139922873       14.8853274293       82.2083820489  TIP3      2445            0.0000000000
     24708      2581  TIP3      H1             55.7725741938       15.8241011950       82.4504750864  TIP3      2445            0.0000000000
     24709      2581  TIP3      H2             56.3765878470       14.5011972708       82.6719494069  TIP3      2445            0.0000000000
     24710      2582  TIP3      OH2            51.3349612634       17.0014990649       83.3966908311  TIP3      2446            0.0000000000
     24711      2582  TIP3      H1             51.6460364020       16.4268549592       82.6629790739  TIP3      2446            0.0000000000
     24712      2582  TIP3      H2             51.9169936065       16.6499026227       84.1107627896  TIP3      2446            0.0000000000
     24713      2583  TIP3      OH2            52.3905520185       10.3792573076       82.4893153805  TIP3      2447            0.0000000000
     24714      2583  TIP3      H1             52.0667636672       10.5450168967       81.5817837674  TIP3      2447            0.0000000000
     24715      2583  TIP3      H2             53.2831172709       10.0497800541       82.2670904708  TIP3      2447            0.0000000000
     24716      2584  TIP3      OH2            48.0354096182        3.5200287209       82.7300279216  TIP3      2448            0.0000000000
     24717      2584  TIP3      H1             47.5249005567        3.9435107684       83.4283601628  TIP3      2448            0.0000000000
     24718      2584  TIP3      H2             47.3712971802        2.8656822855       82.3850428894  TIP3      2448            0.0000000000
     24719      2585  TIP3      OH2            44.0592219482        3.8727789303       81.9175605656  TIP3      2449            0.0000000000
     24720      2585  TIP3      H1             43.4083757539        3.5625064012       82.5825200246  TIP3      2449            0.0000000000
     24721      2585  TIP3      H2             43.6626676510        4.6994565408       81.5913556639  TIP3      2449            0.0000000000
     24722      2586  TIP3      OH2            38.6502950402        3.8834508352       83.9951975571  TIP3      2450            0.0000000000
     24723      2586  TIP3      H1             39.3233322876        4.3076851364       83.4381808566  TIP3      2450            0.0000000000
     24724      2586  TIP3      H2             38.1914653815        4.6893589127       84.3094205509  TIP3      2450            0.0000000000
     24725      2587  TIP3      OH2            43.4572148674        6.9579809598       83.1504905583  TIP3      2451            0.0000000000
     24726      2587  TIP3      H1             42.8553276175        6.8182822337       82.4010177196  TIP3      2451            0.0000000000
     24727      2587  TIP3      H2             44.2624666969        7.2137634369       82.6519624104  TIP3      2451            0.0000000000
     24728      2588  TIP3      OH2            50.7295826684        3.5658027797       83.4712256564  TIP3      2452            0.0000000000
     24729      2588  TIP3      H1             49.7500913701        3.5743829291       83.4368158300  TIP3      2452            0.0000000000
     24730      2588  TIP3      H2             50.9116578102        4.3076052137       84.0933896969  TIP3      2452            0.0000000000
     24731      2589  TIP3      OH2            51.1468865677        6.0269350811       84.6333281887  TIP3      2453            0.0000000000
     24732      2589  TIP3      H1             51.8758319805        6.1407592280       85.2721068653  TIP3      2453            0.0000000000
     24733      2589  TIP3      H2             51.1944454351        6.8076576438       84.0534623064  TIP3      2453            0.0000000000
     24734      2590  TIP3      OH2            48.6706982668       12.7382001412       84.1528127675  TIP3      2454            0.0000000000
     24735      2590  TIP3      H1             48.1504305066       13.5610758818       84.2225597058  TIP3      2454            0.0000000000
     24736      2590  TIP3      H2             48.0710976456       12.0578791713       84.4813873176  TIP3      2454            0.0000000000
     24737      2591  TIP3      OH2            55.9797039190        6.2858666949       84.4978819247  TIP3      2455            0.0000000000
     24738      2591  TIP3      H1             55.5072894163        5.9717938122       83.6904344460  TIP3      2455            0.0000000000
     24739      2591  TIP3      H2             56.1661073817        7.1949574842       84.1863465667  TIP3      2455            0.0000000000
     24740      2592  TIP3      OH2            40.8182087586        9.1311984655       82.5245423339  TIP3      2456            0.0000000000
     24741      2592  TIP3      H1             41.0353485320        9.8241858335       83.1903797101  TIP3      2456            0.0000000000
     24742      2592  TIP3      H2             39.9601393817        8.8261503417       82.8627860986  TIP3      2456            0.0000000000
     24743      2593  TIP3      OH2            52.3296506924       13.3002182233       82.8612730054  TIP3      2457            0.0000000000
     24744      2593  TIP3      H1             52.3404248536       13.2720869041       83.8325020535  TIP3      2457            0.0000000000
     24745      2593  TIP3      H2             51.4847696483       12.8442393380       82.6847665900  TIP3      2457            0.0000000000
     24746      2594  TIP3      OH2            56.1172187718       17.2335793781       83.1745075704  TIP3      2458            0.0000000000
     24747      2594  TIP3      H1             56.9329647248       17.7551208230       83.0802774205  TIP3      2458            0.0000000000
     24748      2594  TIP3      H2             55.5913005903       17.7942508344       83.7660281594  TIP3      2458            0.0000000000
     24749      2595  TIP3      OH2            46.0301697602       14.0071279844       81.2576400936  TIP3      2459            0.0000000000
     24750      2595  TIP3      H1             45.8067622309       13.3002831036       80.6346745213  TIP3      2459            0.0000000000
     24751      2595  TIP3      H2             45.5572665503       13.6968392609       82.0571671371  TIP3      2459            0.0000000000
     24752      2596  TIP3      OH2            44.8290528156       13.2247463766       83.8172976333  TIP3      2460            0.0000000000
     24753      2596  TIP3      H1             45.3937531130       12.8389571518       84.4998760885  TIP3      2460            0.0000000000
     24754      2596  TIP3      H2             44.5351354402       14.0327594383       84.2892704735  TIP3      2460            0.0000000000
     24755      2597  TIP3      OH2            40.9819672529       10.9172758927       84.5615422546  TIP3      2461            0.0000000000
     24756      2597  TIP3      H1             40.5096672735       10.3954554158       85.2478024116  TIP3      2461            0.0000000000
     24757      2597  TIP3      H2             41.8824936070       10.9629191936       84.9348756147  TIP3      2461            0.0000000000
     24758      2598  TIP3      OH2            47.1008328753       15.1209538539       84.0172014822  TIP3      2462            0.0000000000
     24759      2598  TIP3      H1             46.1472158791       15.3289623559       84.0547994150  TIP3      2462            0.0000000000
     24760      2598  TIP3      H2             47.3866176192       15.6483845049       83.2483843369  TIP3      2462            0.0000000000
     24761      2599  TIP3      OH2            44.4212180585       15.8197393772       84.9202833519  TIP3      2463            0.0000000000
     24762      2599  TIP3      H1             44.4359568651       16.5522825129       84.2693161129  TIP3      2463            0.0000000000
     24763      2599  TIP3      H2             44.7304929161       16.3184002416       85.6914206247  TIP3      2463            0.0000000000
     24764      2600  TIP3      OH2            42.4960751032        3.1759493911       84.0693887384  TIP3      2464            0.0000000000
     24765      2600  TIP3      H1             42.2341327593        3.9629951920       84.5761525192  TIP3      2464            0.0000000000
     24766      2600  TIP3      H2             43.4226031714        3.1126592543       84.4023375645  TIP3      2464            0.0000000000
     24767      2601  TIP3      OH2            41.6908655371       13.3399069852       82.8684961830  TIP3      2465            0.0000000000
     24768      2601  TIP3      H1             42.3003642127       13.5838643388       83.5830431281  TIP3      2465            0.0000000000
     24769      2601  TIP3      H2             42.0838683337       12.4930065810       82.6044321179  TIP3      2465            0.0000000000
     24770      2602  TIP3      OH2            39.8532586902        6.2113826608       82.6055877344  TIP3      2466            0.0000000000
     24771      2602  TIP3      H1             40.6075505396        6.7472041199       82.3599353764  TIP3      2466            0.0000000000
     24772      2602  TIP3      H2             39.1858382230        6.5206654491       81.9787629942  TIP3      2466            0.0000000000
     24773      2603  TIP3      OH2            48.0169250397       15.8158403102       81.3986165979  TIP3      2467            0.0000000000
     24774      2603  TIP3      H1             47.3698753338       15.0653768132       81.3544598108  TIP3      2467            0.0000000000
     24775      2603  TIP3      H2             48.7586515721       15.4454788123       80.8571490498  TIP3      2467            0.0000000000
     24776      2604  TIP3      OH2            52.4904393720       15.5952990014       81.4077983463  TIP3      2468            0.0000000000
     24777      2604  TIP3      H1             52.4852996152       14.8031587062       81.9986262127  TIP3      2468            0.0000000000
     24778      2604  TIP3      H2             53.3406742978       15.4513181354       80.9534892000  TIP3      2468            0.0000000000
     24779      2605  TIP3      OH2            43.5791541570       11.1731806190       81.3761852049  TIP3      2469            0.0000000000
     24780      2605  TIP3      H1             44.0216741761       11.0884972230       82.2368063438  TIP3      2469            0.0000000000
     24781      2605  TIP3      H2             44.3230678638       11.0008140554       80.7512944098  TIP3      2469            0.0000000000
     24782      2606  TIP3      OH2            49.4381422002       12.6370843801       81.4618231653  TIP3      2470            0.0000000000
     24783      2606  TIP3      H1             49.1873231899       12.5632195898       82.4082526125  TIP3      2470            0.0000000000
     24784      2606  TIP3      H2             49.1088070379       11.7709958419       81.1010561958  TIP3      2470            0.0000000000
     24785      2607  TIP3      OH2            44.6411916023        9.6533541891       83.7450937995  TIP3      2471            0.0000000000
     24786      2607  TIP3      H1             43.9675992848        9.0821093446       84.1496366068  TIP3      2471            0.0000000000
     24787      2607  TIP3      H2             44.8674170340        9.1355526841       82.9410078973  TIP3      2471            0.0000000000
     24788      2608  TIP3      OH2            45.5578682574        8.0664555130       81.8260656934  TIP3      2472            0.0000000000
     24789      2608  TIP3      H1             45.7455005138        8.3563794178       80.9041257801  TIP3      2472            0.0000000000
     24790      2608  TIP3      H2             46.4603538573        7.8423050124       82.1709771452  TIP3      2472            0.0000000000
     24791      2609  TIP3      OH2            54.9944321168       10.0723966674       81.6493730699  TIP3      2473            0.0000000000
     24792      2609  TIP3      H1             55.0174507603        9.7623927564       80.7088501117  TIP3      2473            0.0000000000
     24793      2609  TIP3      H2             54.9306125493       11.0557288502       81.4996734035  TIP3      2473            0.0000000000
     24794      2610  TIP3      OH2            45.5991711094       17.8895208473       83.5468751029  TIP3      2474            0.0000000000
     24795      2610  TIP3      H1             46.5432058615       17.9908291254       83.3261688640  TIP3      2474            0.0000000000
     24796      2610  TIP3      H2             45.2259279567       18.6847374307       83.1249326946  TIP3      2474            0.0000000000
     24797      2611  TIP3      OH2            38.9281820817       13.2117992681       82.9362513617  TIP3      2475            0.0000000000
     24798      2611  TIP3      H1             39.9100453099       13.2148268075       82.9814989607  TIP3      2475            0.0000000000
     24799      2611  TIP3      H2             38.7929490287       12.5078367719       82.2745733318  TIP3      2475            0.0000000000
     24800      2612  TIP3      OH2            56.7269869149        8.7969278537       83.3673088237  TIP3      2476            0.0000000000
     24801      2612  TIP3      H1             56.1082277836        9.0944919283       82.6651072903  TIP3      2476            0.0000000000
     24802      2612  TIP3      H2             56.5727560263        9.4676466632       84.0576691756  TIP3      2476            0.0000000000
     24803      2613  TIP3      OH2            54.6303545455        6.1838577461       82.1693577469  TIP3      2477            0.0000000000
     24804      2613  TIP3      H1             54.9661358722        6.5089820864       81.3134989369  TIP3      2477            0.0000000000
     24805      2613  TIP3      H2             54.1919457328        5.3478044149       81.9132936603  TIP3      2477            0.0000000000
     24806      2614  TIP3      OH2            54.1566127394        3.5606577401       81.4663261139  TIP3      2478            0.0000000000
     24807      2614  TIP3      H1             54.7471742426        3.0662371345       82.0602209269  TIP3      2478            0.0000000000
     24808      2614  TIP3      H2             53.2780972147        3.2411915458       81.7360355203  TIP3      2478            0.0000000000
     24809      2615  TIP3      OH2            56.0066452163        1.9422726687       83.0245672033  TIP3      2479            0.0000000000
     24810      2615  TIP3      H1             56.5165351418        1.6484966937       82.2196000207  TIP3      2479            0.0000000000
     24811      2615  TIP3      H2             56.6062604198        2.6538398323       83.3538931199  TIP3      2479            0.0000000000
     24812      2616  TIP3      OH2            39.5975934182        0.6299287706       84.5077473080  TIP3      2480            0.0000000000
     24813      2616  TIP3      H1             40.1075074330        0.9121497609       83.7216018545  TIP3      2480            0.0000000000
     24814      2616  TIP3      H2             38.9743714192        1.3695127771       84.5215351644  TIP3      2480            0.0000000000
     24815      2617  TIP3      OH2            40.7606411264        1.8660573942       82.4471077106  TIP3      2481            0.0000000000
     24816      2617  TIP3      H1             41.4847432601        1.3232162745       82.0387008440  TIP3      2481            0.0000000000
     24817      2617  TIP3      H2             41.2610879620        2.3875610216       83.1318339706  TIP3      2481            0.0000000000
     24818      2618  TIP3      OH2            48.3952639998       17.8405404637       83.0273322974  TIP3      2482            0.0000000000
     24819      2618  TIP3      H1             49.1967412874       17.4300667917       83.3924147648  TIP3      2482            0.0000000000
     24820      2618  TIP3      H2             48.2427670605       17.2079240050       82.2880990300  TIP3      2482            0.0000000000
     24821      2619  TIP3      OH2            41.4516750944       17.7872297065       82.1276068059  TIP3      2483            0.0000000000
     24822      2619  TIP3      H1             40.7530729298       18.1464894703       82.7208459201  TIP3      2483            0.0000000000
     24823      2619  TIP3      H2             41.6250683204       16.9192618674       82.5136740631  TIP3      2483            0.0000000000
     24824      2620  TIP3      OH2            63.1666143737        4.0398995126       81.8845522857  TIP3      2484            0.0000000000
     24825      2620  TIP3      H1             62.5065341281        3.5352957262       82.3953998190  TIP3      2484            0.0000000000
     24826      2620  TIP3      H2             62.7240241379        4.9078100981       81.8106580320  TIP3      2484            0.0000000000
     24827      2621  TIP3      OH2            57.5796289662        3.9696936887       83.9261672705  TIP3      2485            0.0000000000
     24828      2621  TIP3      H1             58.3943498438        4.3292781133       83.5329216803  TIP3      2485            0.0000000000
     24829      2621  TIP3      H2             57.1160341886        4.7838790843       84.2178768098  TIP3      2485            0.0000000000
     24830      2622  TIP3      OH2            62.4493550476        6.8578724737       83.2301200384  TIP3      2486            0.0000000000
     24831      2622  TIP3      H1             61.7048955670        6.9252887879       82.6068249336  TIP3      2486            0.0000000000
     24832      2622  TIP3      H2             63.2119257263        6.9821498639       82.6341482860  TIP3      2486            0.0000000000
     24833      2623  TIP3      OH2            59.6118560484        9.1402607248       82.4431355448  TIP3      2487            0.0000000000
     24834      2623  TIP3      H1             59.9609497405        9.8030278607       83.0757458966  TIP3      2487            0.0000000000
     24835      2623  TIP3      H2             58.6584654069        9.2844205968       82.5801838968  TIP3      2487            0.0000000000
     24836      2624  TIP3      OH2            65.0716473372       14.4420215216       80.7512332280  TIP3      2488            0.0000000000
     24837      2624  TIP3      H1             64.6054424639       13.7507973060       80.2621753555  TIP3      2488            0.0000000000
     24838      2624  TIP3      H2             64.9304799918       14.1848997579       81.6683650490  TIP3      2488            0.0000000000
     24839      2625  TIP3      OH2            63.7336568296       13.2796605286       83.5790303644  TIP3      2489            0.0000000000
     24840      2625  TIP3      H1             64.6688403347       13.0627403317       83.7345896253  TIP3      2489            0.0000000000
     24841      2625  TIP3      H2             63.6511238296       14.1369289145       84.0665487994  TIP3      2489            0.0000000000
     24842      2626  TIP3      OH2            59.4546603617       11.0011163231       84.3491523390  TIP3      2490            0.0000000000
     24843      2626  TIP3      H1             59.2881946505       10.3195482680       85.0357600687  TIP3      2490            0.0000000000
     24844      2626  TIP3      H2             60.3625753016       11.3022461701       84.5628604618  TIP3      2490            0.0000000000
     24845      2627  TIP3      OH2            63.3319863556       15.6300374801       84.7989517665  TIP3      2491            0.0000000000
     24846      2627  TIP3      H1             63.2713346065       16.2918728257       84.0825916704  TIP3      2491            0.0000000000
     24847      2627  TIP3      H2             63.5658132589       16.1907621588       85.5529987846  TIP3      2491            0.0000000000
     24848      2628  TIP3      OH2            61.8124751936        3.0286499624       83.9700955028  TIP3      2492            0.0000000000
     24849      2628  TIP3      H1             61.8338722986        3.8315335866       84.5253110464  TIP3      2492            0.0000000000
     24850      2628  TIP3      H2             62.7756804510        2.8825878764       83.9626675950  TIP3      2492            0.0000000000
     24851      2629  TIP3      OH2            60.6297276841       13.3043075789       82.7442024963  TIP3      2493            0.0000000000
     24852      2629  TIP3      H1             61.3606782677       13.3894035680       83.3762455048  TIP3      2493            0.0000000000
     24853      2629  TIP3      H2             60.9791931562       12.5766912233       82.1895925170  TIP3      2493            0.0000000000
     24854      2630  TIP3      OH2            58.9526128293        6.3679293290       82.7018977529  TIP3      2494            0.0000000000
     24855      2630  TIP3      H1             59.1540256141        7.3253787007       82.7400716944  TIP3      2494            0.0000000000
     24856      2630  TIP3      H2             58.2546035103        6.3392728269       82.0380523835  TIP3      2494            0.0000000000
     24857      2631  TIP3      OH2            61.9769303731       11.3643225402       81.3372254078  TIP3      2495            0.0000000000
     24858      2631  TIP3      H1             62.3838878331       10.8852466370       82.0859575628  TIP3      2495            0.0000000000
     24859      2631  TIP3      H2             62.7813366351       11.6048946702       80.8451201119  TIP3      2495            0.0000000000
     24860      2632  TIP3      OH2            63.3827225603        9.7157083639       83.1490600001  TIP3      2496            0.0000000000
     24861      2632  TIP3      H1             62.8550747092        9.1282912134       83.7189056455  TIP3      2496            0.0000000000
     24862      2632  TIP3      H2             63.7954804607        9.0690593782       82.5400279177  TIP3      2496            0.0000000000
     24863      2633  TIP3      OH2            64.6431026934        7.7407749464       81.5779013726  TIP3      2497            0.0000000000
     24864      2633  TIP3      H1             64.1547094029        7.7532822767       80.7293394549  TIP3      2497            0.0000000000
     24865      2633  TIP3      H2             65.5330125396        7.9116127707       81.2526108096  TIP3      2497            0.0000000000
     24866      2634  TIP3      OH2            64.0826166882       18.3071469306       82.6224383505  TIP3      2498            0.0000000000
     24867      2634  TIP3      H1             64.7525433967       18.3243509267       83.3181406338  TIP3      2498            0.0000000000
     24868      2634  TIP3      H2             64.4093860001       19.0570605913       82.0666036705  TIP3      2498            0.0000000000
     24869      2635  TIP3      OH2            57.7781101100       13.0479873192       82.9055542438  TIP3      2499            0.0000000000
     24870      2635  TIP3      H1             58.7576134477       13.0662413540       82.9910801574  TIP3      2499            0.0000000000
     24871      2635  TIP3      H2             57.6846505886       12.5059278156       82.1037325350  TIP3      2499            0.0000000000
     24872      2636  TIP3      OH2            58.6868038930        0.9050282447       84.3618593329  TIP3      2500            0.0000000000
     24873      2636  TIP3      H1             58.6062894350        1.2418322963       83.4507837364  TIP3      2500            0.0000000000
     24874      2636  TIP3      H2             58.5866859491        1.7496306593       84.8310717900  TIP3      2500            0.0000000000
     24875      2637  TIP3      OH2            59.8843492717        2.3253413151       82.2549399182  TIP3      2501            0.0000000000
     24876      2637  TIP3      H1             60.2938766335        1.6168348032       81.7211326736  TIP3      2501            0.0000000000
     24877      2637  TIP3      H2             60.5268914489        2.4151724062       82.9933133695  TIP3      2501            0.0000000000
     24878      2638  TIP3      OH2            59.5642720903       17.2734484035       81.9313631575  TIP3      2502            0.0000000000
     24879      2638  TIP3      H1             59.5062098576       17.6601900569       82.8207914171  TIP3      2502            0.0000000000
     24880      2638  TIP3      H2             60.4509637604       16.8516759800       81.9156583920  TIP3      2502            0.0000000000
     24881      2639  TIP3      OH2            10.6140544194       26.9879082148       82.6957323459  TIP3      2503            0.0000000000
     24882      2639  TIP3      H1             11.4002694406       27.0921131090       83.2746768396  TIP3      2503            0.0000000000
     24883      2639  TIP3      H2             11.0050309984       26.3514293796       82.0733107366  TIP3      2503            0.0000000000
     24884      2640  TIP3      OH2            13.1520311676       27.4491953905       83.9124283454  TIP3      2504            0.0000000000
     24885      2640  TIP3      H1             13.0266284905       27.9534746135       84.7372059915  TIP3      2504            0.0000000000
     24886      2640  TIP3      H2             13.7417195505       28.0268911237       83.3684644235  TIP3      2504            0.0000000000
     24887      2641  TIP3      OH2            16.7497309176       19.0734232897       84.5170106540  TIP3      2505            0.0000000000
     24888      2641  TIP3      H1             15.8540622668       18.9850517899       84.1665020665  TIP3      2505            0.0000000000
     24889      2641  TIP3      H2             17.0726858569       19.9026324772       84.0882948838  TIP3      2505            0.0000000000
     24890      2642  TIP3      OH2            17.9117080257       33.5438700082       82.2232453106  TIP3      2506            0.0000000000
     24891      2642  TIP3      H1             18.0226832287       34.4846116177       82.4584517521  TIP3      2506            0.0000000000
     24892      2642  TIP3      H2             18.6931078866       33.1634304475       82.6734962278  TIP3      2506            0.0000000000
     24893      2643  TIP3      OH2            13.7205954692       35.9424002312       83.1730499116  TIP3      2507            0.0000000000
     24894      2643  TIP3      H1             14.0635780528       35.3216282182       82.4857122016  TIP3      2507            0.0000000000
     24895      2643  TIP3      H2             14.0929846932       35.5142996633       83.9705163381  TIP3      2507            0.0000000000
     24896      2644  TIP3      OH2            14.7083646215       29.1077392386       82.5171009893  TIP3      2508            0.0000000000
     24897      2644  TIP3      H1             14.4010177418       29.1165359318       81.5791826700  TIP3      2508            0.0000000000
     24898      2644  TIP3      H2             15.6490898350       28.9117226533       82.3307699325  TIP3      2508            0.0000000000
     24899      2645  TIP3      OH2            10.4059418835       22.2528313596       82.7042887335  TIP3      2509            0.0000000000
     24900      2645  TIP3      H1              9.7811643860       22.7250364647       83.2745953121  TIP3      2509            0.0000000000
     24901      2645  TIP3      H2              9.8577621144       21.5219293080       82.3761095222  TIP3      2509            0.0000000000
     24902      2646  TIP3      OH2             6.8538249286       22.7125057075       81.8348051484  TIP3      2510            0.0000000000
     24903      2646  TIP3      H1              6.2579473973       22.2854027207       82.4935221402  TIP3      2510            0.0000000000
     24904      2646  TIP3      H2              6.2142515149       23.2791150026       81.3295682262  TIP3      2510            0.0000000000
     24905      2647  TIP3      OH2             1.2584348231       22.5824171085       84.0383019541  TIP3      2511            0.0000000000
     24906      2647  TIP3      H1              1.9159302942       23.2896758868       84.0882897775  TIP3      2511            0.0000000000
     24907      2647  TIP3      H2              0.7066994600       22.8282188136       84.7933247346  TIP3      2511            0.0000000000
     24908      2648  TIP3      OH2             5.5038133491       25.3178148795       83.0394941816  TIP3      2512            0.0000000000
     24909      2648  TIP3      H1              5.1990504700       24.8631939110       82.2336393506  TIP3      2512            0.0000000000
     24910      2648  TIP3      H2              6.1579140487       25.9099646106       82.6329120783  TIP3      2512            0.0000000000
     24911      2649  TIP3      OH2            12.8737677651       23.2160125220       82.5646080762  TIP3      2513            0.0000000000
     24912      2649  TIP3      H1             11.9499935674       22.9912844473       82.8247351561  TIP3      2513            0.0000000000
     24913      2649  TIP3      H2             13.1845641369       23.6371430967       83.4002794892  TIP3      2513            0.0000000000
     24914      2650  TIP3      OH2            13.3746930641       24.9189786633       84.5863150131  TIP3      2514            0.0000000000
     24915      2650  TIP3      H1             14.0639585210       24.9726791901       85.2647811899  TIP3      2514            0.0000000000
     24916      2650  TIP3      H2             13.4971114829       25.7377623714       84.0541976338  TIP3      2514            0.0000000000
     24917      2651  TIP3      OH2            11.0212693959       31.3516169326       83.9314571293  TIP3      2515            0.0000000000
     24918      2651  TIP3      H1             10.4920609391       32.1704761213       84.0151922183  TIP3      2515            0.0000000000
     24919      2651  TIP3      H2             10.5067193741       30.7482051124       84.4819889200  TIP3      2515            0.0000000000
     24920      2652  TIP3      OH2            18.5935143874       24.9649874688       84.3817048361  TIP3      2516            0.0000000000
     24921      2652  TIP3      H1             17.9272938840       24.6086938219       83.7588750071  TIP3      2516            0.0000000000
     24922      2652  TIP3      H2             18.7909731890       25.7918491579       83.8996060408  TIP3      2516            0.0000000000
     24923      2653  TIP3      OH2             3.1782362430       28.0418253517       82.2924605598  TIP3      2517            0.0000000000
     24924      2653  TIP3      H1              3.3531169017       28.9311868413       82.6698981743  TIP3      2517            0.0000000000
     24925      2653  TIP3      H2              2.4139841195       27.8073037973       82.8704425252  TIP3      2517            0.0000000000
     24926      2654  TIP3      OH2            14.8040765567       31.9370625254       82.9240464513  TIP3      2518            0.0000000000
     24927      2654  TIP3      H1             14.5072404555       32.1730860495       83.8174888315  TIP3      2518            0.0000000000
     24928      2654  TIP3      H2             14.1388351003       31.2781250992       82.6478611156  TIP3      2518            0.0000000000
     24929      2655  TIP3      OH2            18.3716038892       36.1200198981       83.0505273808  TIP3      2519            0.0000000000
     24930      2655  TIP3      H1             19.0958953081       36.7620817546       82.9984477961  TIP3      2519            0.0000000000
     24931      2655  TIP3      H2             17.7233553662       36.6359651377       83.5686727796  TIP3      2519            0.0000000000
     24932      2656  TIP3      OH2             8.4406484624       32.8660408924       81.2420373692  TIP3      2520            0.0000000000
     24933      2656  TIP3      H1              8.1485359985       32.2127700497       80.5893089450  TIP3      2520            0.0000000000
     24934      2656  TIP3      H2              8.0769022554       32.4693177315       82.0713616380  TIP3      2520            0.0000000000
     24935      2657  TIP3      OH2             7.1898214347       32.1329313850       83.5836123481  TIP3      2521            0.0000000000
     24936      2657  TIP3      H1              6.8353657915       31.6288242106       84.3484969327  TIP3      2521            0.0000000000
     24937      2657  TIP3      H2              7.1874575749       33.0261615798       83.9884020252  TIP3      2521            0.0000000000
     24938      2658  TIP3      OH2             3.2203386825       30.1400684294       83.9875489121  TIP3      2522            0.0000000000
     24939      2658  TIP3      H1              2.3804270537       29.7425243122       84.2847168077  TIP3      2522            0.0000000000
     24940      2658  TIP3      H2              3.1273329340       31.0749807018       84.2339796549  TIP3      2522            0.0000000000
     24941      2659  TIP3      OH2             9.4979262132       33.6698086556       84.0770811303  TIP3      2523            0.0000000000
     24942      2659  TIP3      H1              8.6130941255       34.0562589778       84.2661413028  TIP3      2523            0.0000000000
     24943      2659  TIP3      H2              9.9462994602       34.4313853744       83.6780075146  TIP3      2523            0.0000000000
     24944      2660  TIP3      OH2             7.0644699215       34.6445273559       84.7574018991  TIP3      2524            0.0000000000
     24945      2660  TIP3      H1              7.1010195734       35.3223757380       84.0520936346  TIP3      2524            0.0000000000
     24946      2660  TIP3      H2              6.6708111766       35.1652828041       85.4771199180  TIP3      2524            0.0000000000
     24947      2661  TIP3      OH2             5.6036387675       21.4172996885       83.8318281250  TIP3      2525            0.0000000000
     24948      2661  TIP3      H1              6.0005389430       22.0996079835       84.4212890441  TIP3      2525            0.0000000000
     24949      2661  TIP3      H2              6.2748237257       20.7259257105       83.8715660332  TIP3      2525            0.0000000000
     24950      2662  TIP3      OH2             3.8346064963       32.7889266856       82.9882174344  TIP3      2526            0.0000000000
     24951      2662  TIP3      H1              4.0413320028       33.2265205655       83.8258912207  TIP3      2526            0.0000000000
     24952      2662  TIP3      H2              4.6413637645       32.2711925873       82.8396289649  TIP3      2526            0.0000000000
     24953      2663  TIP3      OH2             2.5488715544       24.9260435814       82.3512454100  TIP3      2527            0.0000000000
     24954      2663  TIP3      H1              2.7359351720       25.8575146700       82.5278696781  TIP3      2527            0.0000000000
     24955      2663  TIP3      H2              1.7251368416       24.7652593927       82.8299402699  TIP3      2527            0.0000000000
     24956      2664  TIP3      OH2            10.3512189176       35.0389465864       81.3831388923  TIP3      2528            0.0000000000
     24957      2664  TIP3      H1              9.8318505051       34.2043599246       81.3057441559  TIP3      2528            0.0000000000
     24958      2664  TIP3      H2             11.2157310916       34.7476582239       81.0190659840  TIP3      2528            0.0000000000
     24959      2665  TIP3      OH2            14.6928007081       34.1753162879       81.3648818853  TIP3      2529            0.0000000000
     24960      2665  TIP3      H1             14.8148097898       33.3766170063       81.9322627361  TIP3      2529            0.0000000000
     24961      2665  TIP3      H2             15.5514352560       34.2147731870       80.9041171162  TIP3      2529            0.0000000000
     24962      2666  TIP3      OH2             5.6389519152       30.0159765961       81.2502050096  TIP3      2530            0.0000000000
     24963      2666  TIP3      H1              5.8075918837       29.6357513581       82.1231489093  TIP3      2530            0.0000000000
     24964      2666  TIP3      H2              6.5131679577       29.9748744898       80.8094878194  TIP3      2530            0.0000000000
     24965      2667  TIP3      OH2            11.7688173198       31.7095249167       81.3805593680  TIP3      2531            0.0000000000
     24966      2667  TIP3      H1             11.5356297685       31.5968849879       82.3321239991  TIP3      2531            0.0000000000
     24967      2667  TIP3      H2             11.5483487555       30.8102707776       81.0492347783  TIP3      2531            0.0000000000
     24968      2668  TIP3      OH2             6.3661409565       28.3979515254       83.6839374353  TIP3      2532            0.0000000000
     24969      2668  TIP3      H1              5.5591541194       27.9040400342       83.8950657998  TIP3      2532            0.0000000000
     24970      2668  TIP3      H2              6.7356652185       27.8714882774       82.9521820074  TIP3      2532            0.0000000000
     24971      2669  TIP3      OH2             7.6855512222       26.8332829704       81.7286680773  TIP3      2533            0.0000000000
     24972      2669  TIP3      H1              7.7224086415       26.9099214080       80.7561259221  TIP3      2533            0.0000000000
     24973      2669  TIP3      H2              8.6347646706       26.8298878567       81.9534307710  TIP3      2533            0.0000000000
     24974      2670  TIP3      OH2            17.3423186793       28.7886420111       81.6186359443  TIP3      2534            0.0000000000
     24975      2670  TIP3      H1             17.2651098846       28.4504535174       80.6919303587  TIP3      2534            0.0000000000
     24976      2670  TIP3      H2             17.2235207728       29.7542888791       81.4248891537  TIP3      2534            0.0000000000
     24977      2671  TIP3      OH2             8.0178715411       37.0244445287       83.9178013504  TIP3      2535            0.0000000000
     24978      2671  TIP3      H1              8.9884755532       37.0720908893       83.9533728923  TIP3      2535            0.0000000000
     24979      2671  TIP3      H2              7.8804413238       37.5725060210       83.1173869471  TIP3      2535            0.0000000000
     24980      2672  TIP3      OH2             0.9659752729       31.9084858268       82.7250358821  TIP3      2536            0.0000000000
     24981      2672  TIP3      H1              1.9228936202       32.0642388932       82.8152452066  TIP3      2536            0.0000000000
     24982      2672  TIP3      H2              0.9655615336       31.2031219963       82.0556986253  TIP3      2536            0.0000000000
     24983      2673  TIP3      OH2            19.1225061818       27.5307410348       83.3405071781  TIP3      2537            0.0000000000
     24984      2673  TIP3      H1             18.5016376331       27.8625942798       82.6501520164  TIP3      2537            0.0000000000
     24985      2673  TIP3      H2             18.9698703698       28.1830184471       84.0479317964  TIP3      2537            0.0000000000
     24986      2674  TIP3      OH2            16.7656850046       25.1835997580       81.8970328101  TIP3      2538            0.0000000000
     24987      2674  TIP3      H1             17.1408190028       25.6845326768       81.1552580131  TIP3      2538            0.0000000000
     24988      2674  TIP3      H2             16.4454091364       24.3806731203       81.4463691284  TIP3      2538            0.0000000000
     24989      2675  TIP3      OH2            16.2985878818       22.2542160442       81.5680490069  TIP3      2539            0.0000000000
     24990      2675  TIP3      H1             16.8904042752       21.7180224719       82.1388238317  TIP3      2539            0.0000000000
     24991      2675  TIP3      H2             15.5570805157       22.4340916921       82.1719955576  TIP3      2539            0.0000000000
     24992      2676  TIP3      OH2            18.1924092075       20.8472672298       83.0358741175  TIP3      2540            0.0000000000
     24993      2676  TIP3      H1             18.5834899832       20.2699506347       82.3328912819  TIP3      2540            0.0000000000
     24994      2676  TIP3      H2             18.9683372974       21.3660132262       83.3376690456  TIP3      2540            0.0000000000
     24995      2677  TIP3      OH2             1.7967315389       19.4120593611       83.7587995246  TIP3      2541            0.0000000000
     24996      2677  TIP3      H1              1.9090181876       19.9292179819       82.9422358348  TIP3      2541            0.0000000000
     24997      2677  TIP3      H2              1.6681890063       20.1519876977       84.3680781129  TIP3      2541            0.0000000000
     24998      2678  TIP3      OH2             3.3206280067       21.1693708116       82.3404557404  TIP3      2542            0.0000000000
     24999      2678  TIP3      H1              3.9446709218       20.7596182592       81.7065924599  TIP3      2542            0.0000000000
     25000      2678  TIP3      H2              3.9062585917       21.2688812177       83.1212863674  TIP3      2542            0.0000000000
     25001      2679  TIP3      OH2            10.9842378336       36.3884391816       83.5719174747  TIP3      2543            0.0000000000
     25002      2679  TIP3      H1             11.9395087154       36.4907440798       83.3989882878  TIP3      2543            0.0000000000
     25003      2679  TIP3      H2             10.7076543263       36.0391391241       82.6903281864  TIP3      2543            0.0000000000
     25004      2680  TIP3      OH2             3.6502081976       36.2523382898       82.0975297532  TIP3      2544            0.0000000000
     25005      2680  TIP3      H1              2.9833029051       36.3746804815       82.7971522787  TIP3      2544            0.0000000000
     25006      2680  TIP3      H2              4.0371581090       35.3983681891       82.3294082151  TIP3      2544            0.0000000000
     25007      2681  TIP3      OH2            29.1323369168       26.6696360548       82.8676809261  TIP3      2545            0.0000000000
     25008      2681  TIP3      H1             29.6458089657       26.9401005779       83.6389028550  TIP3      2545            0.0000000000
     25009      2681  TIP3      H2             29.8451600575       26.2166841012       82.3626117396  TIP3      2545            0.0000000000
     25010      2682  TIP3      OH2            31.8354343951       27.4521408984       83.5501336584  TIP3      2546            0.0000000000
     25011      2682  TIP3      H1             31.4465351814       28.0958551480       84.1557396035  TIP3      2546            0.0000000000
     25012      2682  TIP3      H2             32.4109013726       28.0156870515       82.9837133943  TIP3      2546            0.0000000000
     25013      2683  TIP3      OH2            35.6323535541       19.1246012804       84.4359175812  TIP3      2547            0.0000000000
     25014      2683  TIP3      H1             34.7249742666       19.0780820382       84.1270713641  TIP3      2547            0.0000000000
     25015      2683  TIP3      H2             35.9519566132       19.9483575091       84.0142850706  TIP3      2547            0.0000000000
     25016      2684  TIP3      OH2            36.6805758591       33.6347407901       82.3401218188  TIP3      2548            0.0000000000
     25017      2684  TIP3      H1             36.9288397504       34.5753598597       82.4328079451  TIP3      2548            0.0000000000
     25018      2684  TIP3      H2             37.3434532523       33.2302744204       82.9308768401  TIP3      2548            0.0000000000
     25019      2685  TIP3      OH2            32.5321720273       35.8018418911       83.1911422480  TIP3      2549            0.0000000000
     25020      2685  TIP3      H1             32.8328530300       35.2424629790       82.4344040675  TIP3      2549            0.0000000000
     25021      2685  TIP3      H2             33.0781931524       35.4013483227       83.9091533932  TIP3      2549            0.0000000000
     25022      2686  TIP3      OH2            33.5039061303       29.0886721872       82.3581115541  TIP3      2550            0.0000000000
     25023      2686  TIP3      H1             33.1532076630       29.2182382912       81.4565227622  TIP3      2550            0.0000000000
     25024      2686  TIP3      H2             34.4483853389       28.9533716937       82.1484911464  TIP3      2550            0.0000000000
     25025      2687  TIP3      OH2            29.2912172120       22.1593354213       82.8687929577  TIP3      2551            0.0000000000
     25026      2687  TIP3      H1             28.6600341321       22.7037688808       83.3583353146  TIP3      2551            0.0000000000
     25027      2687  TIP3      H2             28.7302440457       21.4531263104       82.5226247878  TIP3      2551            0.0000000000
     25028      2688  TIP3      OH2            25.3727893778       22.7211773880       81.5248758767  TIP3      2552            0.0000000000
     25029      2688  TIP3      H1             24.8553830367       22.4094464238       82.3106845269  TIP3      2552            0.0000000000
     25030      2688  TIP3      H2             24.8534775692       23.4954857090       81.2480622002  TIP3      2552            0.0000000000
     25031      2689  TIP3      OH2            19.9695210518       22.6037301127       84.1318415404  TIP3      2553            0.0000000000
     25032      2689  TIP3      H1             20.6677663422       22.8950586967       83.5121191474  TIP3      2553            0.0000000000
     25033      2689  TIP3      H2             19.5565033964       23.4676781895       84.3117907621  TIP3      2553            0.0000000000
     25034      2690  TIP3      OH2            24.4763040596       25.5014577377       83.1380060087  TIP3      2554            0.0000000000
     25035      2690  TIP3      H1             23.7988720600       25.3354364416       82.4631885390  TIP3      2554            0.0000000000
     25036      2690  TIP3      H2             25.1265748910       25.9717859152       82.5891877721  TIP3      2554            0.0000000000
     25037      2691  TIP3      OH2            31.7009422757       23.3046442619       82.3307082899  TIP3      2555            0.0000000000
     25038      2691  TIP3      H1             30.8025033395       23.0392105919       82.6261696005  TIP3      2555            0.0000000000
     25039      2691  TIP3      H2             32.0615203735       23.6795617937       83.1690905447  TIP3      2555            0.0000000000
     25040      2692  TIP3      OH2            32.4723128447       24.9071243955       84.3114447083  TIP3      2556            0.0000000000
     25041      2692  TIP3      H1             33.3109421100       24.9586822954       84.7987311025  TIP3      2556            0.0000000000
     25042      2692  TIP3      H2             32.4041665137       25.7953874714       83.9036096757  TIP3      2556            0.0000000000
     25043      2693  TIP3      OH2            29.8933543631       31.4628611512       84.0772884891  TIP3      2557            0.0000000000
     25044      2693  TIP3      H1             29.3201794398       32.2551225755       84.0225471200  TIP3      2557            0.0000000000
     25045      2693  TIP3      H2             29.3223500721       30.8443302074       84.5488711971  TIP3      2557            0.0000000000
     25046      2694  TIP3      OH2            37.3651836744       25.0438954524       84.2515528639  TIP3      2558            0.0000000000
     25047      2694  TIP3      H1             36.8160329055       24.6148790286       83.5674781232  TIP3      2558            0.0000000000
     25048      2694  TIP3      H2             37.4929115650       25.9293434640       83.8449107362  TIP3      2558            0.0000000000
     25049      2695  TIP3      OH2            22.1354464036       27.8545275012       82.4542147498  TIP3      2559            0.0000000000
     25050      2695  TIP3      H1             22.4267767431       28.5862432942       83.0380738379  TIP3      2559            0.0000000000
     25051      2695  TIP3      H2             21.2149790938       27.7674703720       82.7440946804  TIP3      2559            0.0000000000
     25052      2696  TIP3      OH2            33.4384174282       32.0579811599       82.7616592971  TIP3      2560            0.0000000000
     25053      2696  TIP3      H1             33.3999398436       32.3026927255       83.6996142368  TIP3      2560            0.0000000000
     25054      2696  TIP3      H2             32.5386559808       31.7040270582       82.6340549518  TIP3      2560            0.0000000000
     25055      2697  TIP3      OH2            37.3694436959       36.0940871847       83.1631130617  TIP3      2561            0.0000000000
     25056      2697  TIP3      H1             38.0471717332       36.7828293497       83.2598504504  TIP3      2561            0.0000000000
     25057      2697  TIP3      H2             36.7039738813       36.4225156459       83.7882933218  TIP3      2561            0.0000000000
     25058      2698  TIP3      OH2            27.1156050266       33.0274838336       81.3448672685  TIP3      2562            0.0000000000
     25059      2698  TIP3      H1             26.8504445315       32.4271193695       80.6368189250  TIP3      2562            0.0000000000
     25060      2698  TIP3      H2             26.6337047850       32.6372047091       82.1045267681  TIP3      2562            0.0000000000
     25061      2699  TIP3      OH2            25.8254135200       32.3135559342       83.7730874974  TIP3      2563            0.0000000000
     25062      2699  TIP3      H1             26.4401588338       32.0077171597       84.4578801417  TIP3      2563            0.0000000000
     25063      2699  TIP3      H2             25.7291579737       33.2512033843       84.0546727123  TIP3      2563            0.0000000000
     25064      2700  TIP3      OH2            22.2490852929       29.7189869562       84.4953096153  TIP3      2564            0.0000000000
     25065      2700  TIP3      H1             21.8458827185       28.9832241233       85.0112100879  TIP3      2564            0.0000000000
     25066      2700  TIP3      H2             23.1370877334       29.7795147448       84.9170495188  TIP3      2564            0.0000000000
     25067      2701  TIP3      OH2            28.3914362656       33.7722149623       84.2256669638  TIP3      2565            0.0000000000
     25068      2701  TIP3      H1             27.5210070803       34.2262115523       84.3258682785  TIP3      2565            0.0000000000
     25069      2701  TIP3      H2             28.9039274560       34.4846826893       83.8049739116  TIP3      2565            0.0000000000
     25070      2702  TIP3      OH2            25.9315606616       34.8292775037       84.5320008248  TIP3      2566            0.0000000000
     25071      2702  TIP3      H1             25.9040654647       35.4163540145       83.7502805697  TIP3      2566            0.0000000000
     25072      2702  TIP3      H2             25.6464742589       35.4313349910       85.2352541422  TIP3      2566            0.0000000000
     25073      2703  TIP3      OH2            24.3828602369       21.5780720930       83.7316894912  TIP3      2567            0.0000000000
     25074      2703  TIP3      H1             24.8257784151       22.1664438849       84.3914665191  TIP3      2567            0.0000000000
     25075      2703  TIP3      H2             24.9677634940       20.8087510814       83.7200674710  TIP3      2567            0.0000000000
     25076      2704  TIP3      OH2            22.7947201980       32.2280493440       82.6383584311  TIP3      2568            0.0000000000
     25077      2704  TIP3      H1             23.3326417014       32.3743578360       83.4265768159  TIP3      2568            0.0000000000
     25078      2704  TIP3      H2             23.4235908561       31.6941173748       82.1211468423  TIP3      2568            0.0000000000
     25079      2705  TIP3      OH2            21.0792959078       24.9164338179       82.4394601786  TIP3      2569            0.0000000000
     25080      2705  TIP3      H1             21.6904318781       25.6018262098       82.7587105175  TIP3      2569            0.0000000000
     25081      2705  TIP3      H2             20.2624682941       25.4067974362       82.2897824540  TIP3      2569            0.0000000000
     25082      2706  TIP3      OH2            29.1348913270       34.9936656506       81.3833036951  TIP3      2570            0.0000000000
     25083      2706  TIP3      H1             28.4824091258       34.2630653433       81.4482995153  TIP3      2570            0.0000000000
     25084      2706  TIP3      H2             29.8283436585       34.5229167564       80.8737486058  TIP3      2570            0.0000000000
     25085      2707  TIP3      OH2            33.5255517843       34.2914410938       81.2366692077  TIP3      2571            0.0000000000
     25086      2707  TIP3      H1             33.7209627539       33.5079636190       81.7957316883  TIP3      2571            0.0000000000
     25087      2707  TIP3      H2             34.3694995157       34.4024085459       80.7513346895  TIP3      2571            0.0000000000
     25088      2708  TIP3      OH2            24.6826257924       30.3983102603       81.2938697940  TIP3      2572            0.0000000000
     25089      2708  TIP3      H1             25.0121195061       30.2364719288       82.1883104913  TIP3      2572            0.0000000000
     25090      2708  TIP3      H2             25.4418713965       30.1120996301       80.7305776955  TIP3      2572            0.0000000000
     25091      2709  TIP3      OH2            30.5418148075       31.6281496918       81.4070722152  TIP3      2573            0.0000000000
     25092      2709  TIP3      H1             30.2962558533       31.5660886580       82.3532351866  TIP3      2573            0.0000000000
     25093      2709  TIP3      H2             30.2905136941       30.7262458209       81.0899615801  TIP3      2573            0.0000000000
     25094      2710  TIP3      OH2            25.8536206652       28.3636516028       83.5694378406  TIP3      2574            0.0000000000
     25095      2710  TIP3      H1             25.1041679551       27.8028953913       83.8418769437  TIP3      2574            0.0000000000
     25096      2710  TIP3      H2             26.1822232077       27.8623771220       82.7859945887  TIP3      2574            0.0000000000
     25097      2711  TIP3      OH2            26.7158364528       26.8914029064       81.6515192634  TIP3      2575            0.0000000000
     25098      2711  TIP3      H1             26.8422119475       27.1191706141       80.7090291288  TIP3      2575            0.0000000000
     25099      2711  TIP3      H2             27.6261171190       26.6887699848       81.9628536810  TIP3      2575            0.0000000000
     25100      2712  TIP3      OH2            36.2167924246       28.9391069629       81.5060328546  TIP3      2576            0.0000000000
     25101      2712  TIP3      H1             36.0670672578       28.6411459219       80.5741476919  TIP3      2576            0.0000000000
     25102      2712  TIP3      H2             36.2100427237       29.9235168051       81.3651135070  TIP3      2576            0.0000000000
     25103      2713  TIP3      OH2            27.1732182656       37.1877014840       83.8091310352  TIP3      2577            0.0000000000
     25104      2713  TIP3      H1             28.1167841092       37.2705858326       84.0222893715  TIP3      2577            0.0000000000
     25105      2713  TIP3      H2             27.0678711892       37.7373392302       83.0101992121  TIP3      2577            0.0000000000
     25106      2714  TIP3      OH2            20.0475220644       31.9760613625       82.9301452548  TIP3      2578            0.0000000000
     25107      2714  TIP3      H1             21.0201716213       32.1324748012       82.9227680397  TIP3      2578            0.0000000000
     25108      2714  TIP3      H2             20.0116382477       31.2918683777       82.2387572536  TIP3      2578            0.0000000000
     25109      2715  TIP3      OH2            37.7225373314       27.6626767517       83.3641364621  TIP3      2579            0.0000000000
     25110      2715  TIP3      H1             37.3517270533       28.0763205576       82.5487570191  TIP3      2579            0.0000000000
     25111      2715  TIP3      H2             37.2486625283       28.2027762255       84.0294750757  TIP3      2579            0.0000000000
     25112      2716  TIP3      OH2            35.5057382162       24.9212664997       81.9644631961  TIP3      2580            0.0000000000
     25113      2716  TIP3      H1             36.0886731465       25.4590593394       81.3922413081  TIP3      2580            0.0000000000
     25114      2716  TIP3      H2             35.0948551692       24.3160795535       81.3245874044  TIP3      2580            0.0000000000
     25115      2717  TIP3      OH2            35.1061927014       21.8172217567       81.3538822039  TIP3      2581            0.0000000000
     25116      2717  TIP3      H1             35.7946516399       21.5999782532       82.0262760109  TIP3      2581            0.0000000000
     25117      2717  TIP3      H2             34.3993034620       22.1308521608       81.9360821625  TIP3      2581            0.0000000000
     25118      2718  TIP3      OH2            37.0944126513       20.9034333034       82.9892753233  TIP3      2582            0.0000000000
     25119      2718  TIP3      H1             37.6012435799       20.3900395360       82.3036673325  TIP3      2582            0.0000000000
     25120      2718  TIP3      H2             37.8192077475       21.4625882891       83.3482883343  TIP3      2582            0.0000000000
     25121      2719  TIP3      OH2            21.0072538484       19.3856291075       83.9465006907  TIP3      2583            0.0000000000
     25122      2719  TIP3      H1             20.9570271475       20.2069284517       83.4243498707  TIP3      2583            0.0000000000
     25123      2719  TIP3      H2             21.6394265958       19.6791318913       84.6359923597  TIP3      2583            0.0000000000
     25124      2720  TIP3      OH2            22.1704099902       21.3988202081       82.2856575365  TIP3      2584            0.0000000000
     25125      2720  TIP3      H1             22.6685284870       20.7541026942       81.7404535844  TIP3      2584            0.0000000000
     25126      2720  TIP3      H2             22.7852788016       21.4908689143       83.0518352018  TIP3      2584            0.0000000000
     25127      2721  TIP3      OH2            29.8701061014       36.5317821300       83.6999205611  TIP3      2585            0.0000000000
     25128      2721  TIP3      H1             30.8335014609       36.3737395349       83.5896019303  TIP3      2585            0.0000000000
     25129      2721  TIP3      H2             29.5420700397       36.2522539540       82.8201503294  TIP3      2585            0.0000000000
     25130      2722  TIP3      OH2            21.7074887306       36.2286457654       81.8618484912  TIP3      2586            0.0000000000
     25131      2722  TIP3      H1             21.4693650502       36.6141126205       82.7257769771  TIP3      2586            0.0000000000
     25132      2722  TIP3      H2             22.4507743167       35.6417216207       82.0936833257  TIP3      2586            0.0000000000
     25133      2723  TIP3      OH2            48.5621322024       26.9100294019       82.1217784622  TIP3      2587            0.0000000000
     25134      2723  TIP3      H1             49.1834240163       27.2692179249       82.7885741848  TIP3      2587            0.0000000000
     25135      2723  TIP3      H2             49.0327070396       26.0629253236       81.9568192206  TIP3      2587            0.0000000000
     25136      2724  TIP3      OH2            50.7329666876       27.4002549311       83.6529235978  TIP3      2588            0.0000000000
     25137      2724  TIP3      H1             50.3922635153       28.0533151772       84.2853585026  TIP3      2588            0.0000000000
     25138      2724  TIP3      H2             51.3092434803       27.9523410446       83.0626261531  TIP3      2588            0.0000000000
     25139      2725  TIP3      OH2            54.4544907562       19.1046868559       84.5452707567  TIP3      2589            0.0000000000
     25140      2725  TIP3      H1             53.8959958041       18.8444183740       83.8135204956  TIP3      2589            0.0000000000
     25141      2725  TIP3      H2             54.9980235165       19.8161755833       84.1343024384  TIP3      2589            0.0000000000
     25142      2726  TIP3      OH2            55.5797252109       33.5334784321       82.0562130488  TIP3      2590            0.0000000000
     25143      2726  TIP3      H1             55.6527324746       34.5033935971       82.1447952061  TIP3      2590            0.0000000000
     25144      2726  TIP3      H2             56.3017939409       33.2824456133       82.6556850926  TIP3      2590            0.0000000000
     25145      2727  TIP3      OH2            51.5376809615       35.9977781832       83.2349298538  TIP3      2591            0.0000000000
     25146      2727  TIP3      H1             51.7188828356       35.3186167904       82.5476943636  TIP3      2591            0.0000000000
     25147      2727  TIP3      H2             51.9171783835       35.5299030185       84.0104020099  TIP3      2591            0.0000000000
     25148      2728  TIP3      OH2            52.3546258008       29.1019156177       82.4935820616  TIP3      2592            0.0000000000
     25149      2728  TIP3      H1             52.0801294462       29.1549951949       81.5560052859  TIP3      2592            0.0000000000
     25150      2728  TIP3      H2             53.3012571265       28.9029308829       82.3503725733  TIP3      2592            0.0000000000
     25151      2729  TIP3      OH2            47.9091760796       22.1237215551       83.2215213046  TIP3      2593            0.0000000000
     25152      2729  TIP3      H1             47.4070588861       22.5655142814       83.9222131738  TIP3      2593            0.0000000000
     25153      2729  TIP3      H2             47.4378926990       22.4451309566       82.4401336190  TIP3      2593            0.0000000000
     25154      2730  TIP3      OH2            44.6748522783       22.8430126031       81.8809868676  TIP3      2594            0.0000000000
     25155      2730  TIP3      H1             44.0572423153       22.3126614321       82.4373939970  TIP3      2594            0.0000000000
     25156      2730  TIP3      H2             44.0740728356       23.5536861226       81.5670510468  TIP3      2594            0.0000000000
     25157      2731  TIP3      OH2            38.8455588382       22.6819794413       84.0142018309  TIP3      2595            0.0000000000
     25158      2731  TIP3      H1             39.6848382886       22.9163080822       83.5822469036  TIP3      2595            0.0000000000
     25159      2731  TIP3      H2             38.4102162327       23.5571500803       84.0342645581  TIP3      2595            0.0000000000
     25160      2732  TIP3      OH2            43.2667334643       25.3792735640       83.1416570284  TIP3      2596            0.0000000000
     25161      2732  TIP3      H1             42.9339465730       25.0623549565       82.2810372721  TIP3      2596            0.0000000000
     25162      2732  TIP3      H2             44.0882468818       25.7873214263       82.8369647539  TIP3      2596            0.0000000000
     25163      2733  TIP3      OH2            50.5600196474       22.7659198552       83.1784841803  TIP3      2597            0.0000000000
     25164      2733  TIP3      H1             49.6527806856       23.0202227454       83.4519328889  TIP3      2597            0.0000000000
     25165      2733  TIP3      H2             51.0952811687       23.4710696752       83.6225924506  TIP3      2597            0.0000000000
     25166      2734  TIP3      OH2            51.3976220598       24.9032619591       84.5192349313  TIP3      2598            0.0000000000
     25167      2734  TIP3      H1             52.1920643816       25.0565602798       85.0457964459  TIP3      2598            0.0000000000
     25168      2734  TIP3      H2             51.2595999705       25.7527570512       84.0511318275  TIP3      2598            0.0000000000
     25169      2735  TIP3      OH2            48.7234110121       31.3890471014       84.1714191374  TIP3      2599            0.0000000000
     25170      2735  TIP3      H1             48.2463472976       32.2363676846       84.1846366137  TIP3      2599            0.0000000000
     25171      2735  TIP3      H2             48.0382737946       30.7823584680       84.4886926961  TIP3      2599            0.0000000000
     25172      2736  TIP3      OH2            56.1220082405       24.8669977374       84.3425604083  TIP3      2600            0.0000000000
     25173      2736  TIP3      H1             55.4560372460       24.5181993684       83.7219165072  TIP3      2600            0.0000000000
     25174      2736  TIP3      H2             56.3881658923       25.6742767187       83.8607586790  TIP3      2600            0.0000000000
     25175      2737  TIP3      OH2            40.6036904897       27.9499799441       82.4024129829  TIP3      2601            0.0000000000
     25176      2737  TIP3      H1             41.0045756609       28.5567189771       83.0723834742  TIP3      2601            0.0000000000
     25177      2737  TIP3      H2             39.7415192148       27.7706524045       82.8231996471  TIP3      2601            0.0000000000
     25178      2738  TIP3      OH2            52.3072165237       31.9874806945       82.8768090139  TIP3      2602            0.0000000000
     25179      2738  TIP3      H1             52.2926721296       32.1754991572       83.8306855330  TIP3      2602            0.0000000000
     25180      2738  TIP3      H2             51.5179142294       31.4209787561       82.7793246588  TIP3      2602            0.0000000000
     25181      2739  TIP3      OH2            55.9918728924       36.0111737011       82.8813325805  TIP3      2603            0.0000000000
     25182      2739  TIP3      H1             56.4015699818       36.8530066680       82.6145324528  TIP3      2603            0.0000000000
     25183      2739  TIP3      H2             55.3353975486       36.3690107873       83.4990782119  TIP3      2603            0.0000000000
     25184      2740  TIP3      OH2            45.7481474373       33.2388668555       81.2216720827  TIP3      2604            0.0000000000
     25185      2740  TIP3      H1             45.7190583471       32.6207127357       80.4745616988  TIP3      2604            0.0000000000
     25186      2740  TIP3      H2             45.3657342617       32.6987087792       81.9413964427  TIP3      2604            0.0000000000
     25187      2741  TIP3      OH2            44.6245729245       32.1684543162       83.8182100535  TIP3      2605            0.0000000000
     25188      2741  TIP3      H1             45.3511438167       32.0005003229       84.4403154257  TIP3      2605            0.0000000000
     25189      2741  TIP3      H2             44.2152035675       32.9533163576       84.2485670020  TIP3      2605            0.0000000000
     25190      2742  TIP3      OH2            41.2372237254       29.6971842707       84.1941503182  TIP3      2606            0.0000000000
     25191      2742  TIP3      H1             40.6719869954       29.1352170881       84.7725254342  TIP3      2606            0.0000000000
     25192      2742  TIP3      H2             41.9843256598       29.7955591892       84.8123478435  TIP3      2606            0.0000000000
     25193      2743  TIP3      OH2            47.0362704000       33.9693839471       84.0140821785  TIP3      2607            0.0000000000
     25194      2743  TIP3      H1             46.1215188082       34.0293413095       83.6909966597  TIP3      2607            0.0000000000
     25195      2743  TIP3      H2             47.3923437052       34.8127243114       83.6754538391  TIP3      2607            0.0000000000
     25196      2744  TIP3      OH2            44.0516531241       34.5772347404       84.9835627166  TIP3      2608            0.0000000000
     25197      2744  TIP3      H1             44.0129422564       35.2753844471       84.3062739119  TIP3      2608            0.0000000000
     25198      2744  TIP3      H2             44.7367704887       34.9527485025       85.5575593171  TIP3      2608            0.0000000000
     25199      2745  TIP3      OH2            43.2449432200       21.5528278160       83.7712125792  TIP3      2609            0.0000000000
     25200      2745  TIP3      H1             43.6549501162       22.2436371452       84.3496803459  TIP3      2609            0.0000000000
     25201      2745  TIP3      H2             43.6965104172       20.7503636965       84.0782181057  TIP3      2609            0.0000000000
     25202      2746  TIP3      OH2            41.5101936177       32.2110115784       82.4510190190  TIP3      2610            0.0000000000
     25203      2746  TIP3      H1             41.8067278883       32.6706731540       83.2497401229  TIP3      2610            0.0000000000
     25204      2746  TIP3      H2             42.0715897087       31.4208202925       82.4791588599  TIP3      2610            0.0000000000
     25205      2747  TIP3      OH2            39.8243075209       25.1251195537       82.5424816605  TIP3      2611            0.0000000000
     25206      2747  TIP3      H1             40.5780531437       25.7208419601       82.6688725494  TIP3      2611            0.0000000000
     25207      2747  TIP3      H2             39.1173269222       25.6982147303       82.2031389625  TIP3      2611            0.0000000000
     25208      2748  TIP3      OH2            47.8829310104       35.0298441110       81.3819437500  TIP3      2612            0.0000000000
     25209      2748  TIP3      H1             47.2373100345       34.2924206212       81.4180033169  TIP3      2612            0.0000000000
     25210      2748  TIP3      H2             48.6119898776       34.6272646517       80.8597937804  TIP3      2612            0.0000000000
     25211      2749  TIP3      OH2            52.3844548761       34.2299385017       81.3198041820  TIP3      2613            0.0000000000
     25212      2749  TIP3      H1             52.4605179205       33.4533558475       81.9204830639  TIP3      2613            0.0000000000
     25213      2749  TIP3      H2             53.1736467697       34.0847039250       80.7548974588  TIP3      2613            0.0000000000
     25214      2750  TIP3      OH2            43.5153793269       30.2422763452       81.4123077609  TIP3      2614            0.0000000000
     25215      2750  TIP3      H1             43.9354385552       30.0093012345       82.2615874770  TIP3      2614            0.0000000000
     25216      2750  TIP3      H2             44.2779305747       30.0962546693       80.8030335141  TIP3      2614            0.0000000000
     25217      2751  TIP3      OH2            49.2805453893       31.6269694297       81.3682313802  TIP3      2615            0.0000000000
     25218      2751  TIP3      H1             49.1366353151       31.4919655029       82.3246967501  TIP3      2615            0.0000000000
     25219      2751  TIP3      H2             49.0035465905       30.7487789941       81.0154933891  TIP3      2615            0.0000000000
     25220      2752  TIP3      OH2            44.5985025635       28.6007438962       83.5797464633  TIP3      2616            0.0000000000
     25221      2752  TIP3      H1             43.8854655881       28.0299813082       83.8935027223  TIP3      2616            0.0000000000
     25222      2752  TIP3      H2             45.1423817906       27.9952483348       83.0395993303  TIP3      2616            0.0000000000
     25223      2753  TIP3      OH2            45.8951117073       26.6029787909       81.9024397201  TIP3      2617            0.0000000000
     25224      2753  TIP3      H1             45.6685253466       26.7685383079       80.9687467201  TIP3      2617            0.0000000000
     25225      2753  TIP3      H2             46.8765061012       26.6653353091       81.8681068132  TIP3      2617            0.0000000000
     25226      2754  TIP3      OH2            54.9827918405       28.8048612806       81.6983205102  TIP3      2618            0.0000000000
     25227      2754  TIP3      H1             54.9844944283       28.4502543035       80.7846775092  TIP3      2618            0.0000000000
     25228      2754  TIP3      H2             54.8799529369       29.7715346096       81.4973722913  TIP3      2618            0.0000000000
     25229      2755  TIP3      OH2            45.5896262281       36.6085389370       83.8154288036  TIP3      2619            0.0000000000
     25230      2755  TIP3      H1             46.2443219259       37.2514319443       84.1321696725  TIP3      2619            0.0000000000
     25231      2755  TIP3      H2             45.0289372307       37.1476773826       83.2373241830  TIP3      2619            0.0000000000
     25232      2756  TIP3      OH2            38.7651589175       31.8060084186       82.8780589567  TIP3      2620            0.0000000000
     25233      2756  TIP3      H1             39.7316325086       31.7569529119       82.7545236492  TIP3      2620            0.0000000000
     25234      2756  TIP3      H2             38.4582386531       31.3862204531       82.0526921641  TIP3      2620            0.0000000000
     25235      2757  TIP3      OH2            56.7246102552       27.6524981861       83.4058909966  TIP3      2621            0.0000000000
     25236      2757  TIP3      H1             56.1583601821       27.9635011090       82.6628782658  TIP3      2621            0.0000000000
     25237      2757  TIP3      H2             56.4723920205       28.2982468814       84.0856827932  TIP3      2621            0.0000000000
     25238      2758  TIP3      OH2            54.3709868406       25.0145831743       82.0056474260  TIP3      2622            0.0000000000
     25239      2758  TIP3      H1             54.6520513105       25.4657831320       81.1971264465  TIP3      2622            0.0000000000
     25240      2758  TIP3      H2             54.1109322934       24.1340498066       81.6655032451  TIP3      2622            0.0000000000
     25241      2759  TIP3      OH2            53.8823801731       22.1120712240       81.9593089609  TIP3      2623            0.0000000000
     25242      2759  TIP3      H1             54.7163324411       21.7273004926       82.3210451630  TIP3      2623            0.0000000000
     25243      2759  TIP3      H2             53.4253507205       22.2795940619       82.8027114840  TIP3      2623            0.0000000000
     25244      2760  TIP3      OH2            55.9138262993       20.8657094340       83.1925998788  TIP3      2624            0.0000000000
     25245      2760  TIP3      H1             56.3082622004       20.3808331288       82.4215231313  TIP3      2624            0.0000000000
     25246      2760  TIP3      H2             56.7328832033       21.2549583391       83.5776375506  TIP3      2624            0.0000000000
     25247      2761  TIP3      OH2            39.7032633892       19.4324686509       83.6249005814  TIP3      2625            0.0000000000
     25248      2761  TIP3      H1             39.9901580692       20.2160266216       83.1160710964  TIP3      2625            0.0000000000
     25249      2761  TIP3      H2             39.4502050421       19.9069962715       84.4328855376  TIP3      2625            0.0000000000
     25250      2762  TIP3      OH2            40.9670143999       21.4368238619       82.3021017519  TIP3      2626            0.0000000000
     25251      2762  TIP3      H1             41.5748147241       20.9289121796       81.7322064347  TIP3      2626            0.0000000000
     25252      2762  TIP3      H2             41.5402501889       21.5881000341       83.0878554288  TIP3      2626            0.0000000000
     25253      2763  TIP3      OH2            48.8997902754       36.1448920888       83.7323462267  TIP3      2627            0.0000000000
     25254      2763  TIP3      H1             49.8734501784       36.2160291723       83.6344598866  TIP3      2627            0.0000000000
     25255      2763  TIP3      H2             48.6311974421       36.0478099707       82.7957826268  TIP3      2627            0.0000000000
     25256      2764  TIP3      OH2            40.3518362450       35.7131800590       81.6589456083  TIP3      2628            0.0000000000
     25257      2764  TIP3      H1             40.3849740892       36.0971872425       82.5550087310  TIP3      2628            0.0000000000
     25258      2764  TIP3      H2             41.1983379656       35.2329464101       81.5981272249  TIP3      2628            0.0000000000
     25259      2765  TIP3      OH2            63.1180412981       22.6300791160       81.7319285642  TIP3      2629            0.0000000000
     25260      2765  TIP3      H1             62.6005238234       22.1050338226       82.3751538149  TIP3      2629            0.0000000000
     25261      2765  TIP3      H2             62.4156010744       22.9653892804       81.1436116619  TIP3      2629            0.0000000000
     25262      2766  TIP3      OH2            57.6573113353       22.6425613042       84.1457715312  TIP3      2630            0.0000000000
     25263      2766  TIP3      H1             58.4343143784       23.0630689201       83.7421948760  TIP3      2630            0.0000000000
     25264      2766  TIP3      H2             57.0704703134       23.4203897583       84.2787874074  TIP3      2630            0.0000000000
     25265      2767  TIP3      OH2            61.9952811978       25.1544840130       83.1028808301  TIP3      2631            0.0000000000
     25266      2767  TIP3      H1             61.4180649954       24.9422947224       82.3536503438  TIP3      2631            0.0000000000
     25267      2767  TIP3      H2             62.6341020686       25.7673215466       82.7061720302  TIP3      2631            0.0000000000
     25268      2768  TIP3      OH2            59.6263109767       27.8576968960       82.5206977401  TIP3      2632            0.0000000000
     25269      2768  TIP3      H1             59.9500015027       28.5784468072       83.0888261677  TIP3      2632            0.0000000000
     25270      2768  TIP3      H2             58.6986837354       27.8144494261       82.8339898871  TIP3      2632            0.0000000000
     25271      2769  TIP3      OH2            64.6554332869       33.3669577933       80.6754247588  TIP3      2633            0.0000000000
     25272      2769  TIP3      H1             64.7735796162       32.4412734340       80.4230672355  TIP3      2633            0.0000000000
     25273      2769  TIP3      H2             64.4643076718       33.2473014671       81.6300508545  TIP3      2633            0.0000000000
     25274      2770  TIP3      OH2            63.9477629051       32.5619317792       83.2228816931  TIP3      2634            0.0000000000
     25275      2770  TIP3      H1             64.6889494328       32.1603896090       83.7201558252  TIP3      2634            0.0000000000
     25276      2770  TIP3      H2             63.5896864698       33.2095638002       83.8673510960  TIP3      2634            0.0000000000
     25277      2771  TIP3      OH2            59.3218829837       29.7653710262       84.4082986189  TIP3      2635            0.0000000000
     25278      2771  TIP3      H1             59.1805763299       29.0245257369       85.0456922542  TIP3      2635            0.0000000000
     25279      2771  TIP3      H2             60.2328960257       30.0480634838       84.6173549131  TIP3      2635            0.0000000000
     25280      2772  TIP3      OH2            62.9311653689       34.5287988192       84.8985301904  TIP3      2636            0.0000000000
     25281      2772  TIP3      H1             62.9921971609       35.2706190470       84.2704076970  TIP3      2636            0.0000000000
     25282      2772  TIP3      H2             63.5331527308       34.8414208564       85.5880670417  TIP3      2636            0.0000000000
     25283      2773  TIP3      OH2            62.2632786842       21.4904416564       84.0258707208  TIP3      2637            0.0000000000
     25284      2773  TIP3      H1             61.9794024886       21.9332262490       84.8306182697  TIP3      2637            0.0000000000
     25285      2773  TIP3      H2             63.1506159299       21.8970333072       84.0010629216  TIP3      2637            0.0000000000
     25286      2774  TIP3      OH2            60.6981471647       32.2252737699       82.9355399706  TIP3      2638            0.0000000000
     25287      2774  TIP3      H1             61.4249026306       32.2015213223       83.5774371612  TIP3      2638            0.0000000000
     25288      2774  TIP3      H2             61.0223447696       31.5751391243       82.2834642607  TIP3      2638            0.0000000000
     25289      2775  TIP3      OH2            58.9856186287       25.0234323586       82.5369105035  TIP3      2639            0.0000000000
     25290      2775  TIP3      H1             59.3615718436       25.9244578492       82.5558680978  TIP3      2639            0.0000000000
     25291      2775  TIP3      H2             58.2839466120       25.0809614160       81.8724543525  TIP3      2639            0.0000000000
     25292      2776  TIP3      OH2            61.9819564073       30.1295320283       81.5155696335  TIP3      2640            0.0000000000
     25293      2776  TIP3      H1             62.5258193185       29.6509880831       82.1771608891  TIP3      2640            0.0000000000
     25294      2776  TIP3      H2             62.6775505065       30.3853817568       80.8931105940  TIP3      2640            0.0000000000
     25295      2777  TIP3      OH2            63.5284089216       28.5778331162       83.4597460051  TIP3      2641            0.0000000000
     25296      2777  TIP3      H1             63.5241022115       27.9863337953       84.2356053671  TIP3      2641            0.0000000000
     25297      2777  TIP3      H2             63.9644927731       27.9886426148       82.7941607072  TIP3      2641            0.0000000000
     25298      2778  TIP3      OH2            64.7747317734       26.5243471702       82.0750788248  TIP3      2642            0.0000000000
     25299      2778  TIP3      H1             64.8056742028       25.7306410421       81.4860196041  TIP3      2642            0.0000000000
     25300      2778  TIP3      H2             65.7007710154       26.6485469804       82.3203238957  TIP3      2642            0.0000000000
     25301      2779  TIP3      OH2            64.4598898110       36.9914133512       82.5026683871  TIP3      2643            0.0000000000
     25302      2779  TIP3      H1             65.2149411702       37.0476111242       83.1055357599  TIP3      2643            0.0000000000
     25303      2779  TIP3      H2             64.5283746394       37.8395023776       82.0208351411  TIP3      2643            0.0000000000
     25304      2780  TIP3      OH2            57.8511424832       31.9341108662       83.0370220235  TIP3      2644            0.0000000000
     25305      2780  TIP3      H1             58.8259271834       31.8676668137       83.0371346481  TIP3      2644            0.0000000000
     25306      2780  TIP3      H2             57.6155701661       31.2186477032       82.4318203315  TIP3      2644            0.0000000000
     25307      2781  TIP3      OH2            58.3511466119       19.5397287874       83.8408100123  TIP3      2645            0.0000000000
     25308      2781  TIP3      H1             58.8242487581       20.2017229529       83.2991265372  TIP3      2645            0.0000000000
     25309      2781  TIP3      H2             58.5181021507       19.8887894192       84.7277678222  TIP3      2645            0.0000000000
     25310      2782  TIP3      OH2            59.9865722151       21.3194462496       82.4357737749  TIP3      2646            0.0000000000
     25311      2782  TIP3      H1             60.4222973848       20.6689920508       81.8376173943  TIP3      2646            0.0000000000
     25312      2782  TIP3      H2             60.6534710969       21.3817472947       83.1531416087  TIP3      2646            0.0000000000
     25313      2783  TIP3      OH2            59.4248697016       36.1533479848       81.6698328207  TIP3      2647            0.0000000000
     25314      2783  TIP3      H1             59.0806700274       36.3360205117       82.5618974946  TIP3      2647            0.0000000000
     25315      2783  TIP3      H2             60.2762171016       35.6988932406       81.8319323044  TIP3      2647            0.0000000000
     25316      2784  TIP3      OH2            10.6270233815       45.8729754119       82.4143764152  TIP3      2648            0.0000000000
     25317      2784  TIP3      H1             11.3657155169       46.1705871814       82.9848471218  TIP3      2648            0.0000000000
     25318      2784  TIP3      H2             11.0483963402       45.0906444691       82.0180263669  TIP3      2648            0.0000000000
     25319      2785  TIP3      OH2            13.0714002267       46.3633340617       83.6717650827  TIP3      2649            0.0000000000
     25320      2785  TIP3      H1             12.9804602417       46.9243634293       84.4582941998  TIP3      2649            0.0000000000
     25321      2785  TIP3      H2             13.6704365707       46.9012734537       83.0985941268  TIP3      2649            0.0000000000
     25322      2786  TIP3      OH2            16.7834275277       37.9449208980       84.5156008302  TIP3      2650            0.0000000000
     25323      2786  TIP3      H1             15.8664202480       38.0424551886       84.2353555382  TIP3      2650            0.0000000000
     25324      2786  TIP3      H2             17.2138328799       38.7198128080       84.0964651494  TIP3      2650            0.0000000000
     25325      2787  TIP3      OH2            17.7662541656       52.3633199353       82.4610919400  TIP3      2651            0.0000000000
     25326      2787  TIP3      H1             18.0660257315       53.2925445867       82.4674330052  TIP3      2651            0.0000000000
     25327      2787  TIP3      H2             18.5745712212       51.9039589978       82.7841324980  TIP3      2651            0.0000000000
     25328      2788  TIP3      OH2            13.8992663153       54.8035991539       83.2013004217  TIP3      2652            0.0000000000
     25329      2788  TIP3      H1             14.2460321947       54.1015893463       82.6050852286  TIP3      2652            0.0000000000
     25330      2788  TIP3      H2             14.1605922233       54.4236613056       84.0664333916  TIP3      2652            0.0000000000
     25331      2789  TIP3      OH2            14.7267964224       47.9204654474       82.4609920690  TIP3      2653            0.0000000000
     25332      2789  TIP3      H1             14.3921183350       47.9483530957       81.5378463452  TIP3      2653            0.0000000000
     25333      2789  TIP3      H2             15.6777408294       47.7714009076       82.2888281417  TIP3      2653            0.0000000000
     25334      2790  TIP3      OH2            10.3367382134       41.0817181767       82.8357337988  TIP3      2654            0.0000000000
     25335      2790  TIP3      H1              9.6718911488       41.7527145173       83.0541877221  TIP3      2654            0.0000000000
     25336      2790  TIP3      H2              9.8118940359       40.4105032767       82.3782572830  TIP3      2654            0.0000000000
     25337      2791  TIP3      OH2             6.7589651805       41.3509324841       81.6389853726  TIP3      2655            0.0000000000
     25338      2791  TIP3      H1              6.2037245125       41.0122195948       82.3799207504  TIP3      2655            0.0000000000
     25339      2791  TIP3      H2              6.1557431796       42.0117884723       81.2315470070  TIP3      2655            0.0000000000
     25340      2792  TIP3      OH2             1.2624347486       41.3949733769       84.0495166511  TIP3      2656            0.0000000000
     25341      2792  TIP3      H1              2.0762238752       41.6746995386       83.6007598051  TIP3      2656            0.0000000000
     25342      2792  TIP3      H2              1.0280137681       42.1289599014       84.6353318332  TIP3      2656            0.0000000000
     25343      2793  TIP3      OH2             5.5602703850       44.1607520124       83.1510980509  TIP3      2657            0.0000000000
     25344      2793  TIP3      H1              5.2036009443       43.6395710246       82.4154064672  TIP3      2657            0.0000000000
     25345      2793  TIP3      H2              6.2378006312       44.6642259784       82.6644775512  TIP3      2657            0.0000000000
     25346      2794  TIP3      OH2            12.9244190117       41.9231772810       82.8375134174  TIP3      2658            0.0000000000
     25347      2794  TIP3      H1             11.9678617625       41.7390544989       82.9745795089  TIP3      2658            0.0000000000
     25348      2794  TIP3      H2             13.1248783129       42.5031059287       83.6030569737  TIP3      2658            0.0000000000
     25349      2795  TIP3      OH2            13.3319191334       43.8441635456       84.5650653715  TIP3      2659            0.0000000000
     25350      2795  TIP3      H1             14.1532207131       43.7722025505       85.0733385667  TIP3      2659            0.0000000000
     25351      2795  TIP3      H2             13.4375457206       44.6735505666       84.0561257471  TIP3      2659            0.0000000000
     25352      2796  TIP3      OH2            10.8832794180       50.2769359215       83.9645586239  TIP3      2660            0.0000000000
     25353      2796  TIP3      H1             10.3380532776       51.0802081209       84.0595305947  TIP3      2660            0.0000000000
     25354      2796  TIP3      H2             10.2702462873       49.5909216085       84.2626047507  TIP3      2660            0.0000000000
     25355      2797  TIP3      OH2            18.4802610165       43.9065073937       84.5200830041  TIP3      2661            0.0000000000
     25356      2797  TIP3      H1             18.0517065206       43.5349814826       83.7241124645  TIP3      2661            0.0000000000
     25357      2797  TIP3      H2             18.5952373545       44.8310090277       84.2031622587  TIP3      2661            0.0000000000
     25358      2798  TIP3      OH2             1.8080592918       47.1584330568       82.1813742159  TIP3      2662            0.0000000000
     25359      2798  TIP3      H1              2.4575826616       47.6218059837       82.7667711634  TIP3      2662            0.0000000000
     25360      2798  TIP3      H2              1.0205477365       47.2747794595       82.7296189571  TIP3      2662            0.0000000000
     25361      2799  TIP3      OH2            14.5787874447       50.8638658654       82.9315641736  TIP3      2663            0.0000000000
     25362      2799  TIP3      H1             14.5303408624       51.1782787230       83.8477485941  TIP3      2663            0.0000000000
     25363      2799  TIP3      H2             13.6687198300       50.5378157323       82.8264423207  TIP3      2663            0.0000000000
     25364      2800  TIP3      OH2            18.4859191212       54.9958518050       82.9890396481  TIP3      2664            0.0000000000
     25365      2800  TIP3      H1             19.2079890757       55.6100484744       83.1909516518  TIP3      2664            0.0000000000
     25366      2800  TIP3      H2             17.8605925218       55.2573495060       83.6833347707  TIP3      2664            0.0000000000
     25367      2801  TIP3      OH2             8.5189601242       51.8902429504       81.0352118259  TIP3      2665            0.0000000000
     25368      2801  TIP3      H1              8.0118820638       51.2564133605       80.5111834154  TIP3      2665            0.0000000000
     25369      2801  TIP3      H2              8.1512411845       51.7055913913       81.9206219084  TIP3      2665            0.0000000000
     25370      2802  TIP3      OH2             6.8720689349       51.2039925189       83.8053123818  TIP3      2666            0.0000000000
     25371      2802  TIP3      H1              7.3943478808       51.1194785786       84.6116661457  TIP3      2666            0.0000000000
     25372      2802  TIP3      H2              6.4211447744       52.0585476609       83.9823968590  TIP3      2666            0.0000000000
     25373      2803  TIP3      OH2             3.0829406551       48.3442441938       84.2696244561  TIP3      2667            0.0000000000
     25374      2803  TIP3      H1              3.2440856004       48.1878055004       85.2139430951  TIP3      2667            0.0000000000
     25375      2803  TIP3      H2              3.7695934554       49.0063133736       84.1036448702  TIP3      2667            0.0000000000
     25376      2804  TIP3      OH2             9.2981216442       52.7786902600       83.9094749731  TIP3      2668            0.0000000000
     25377      2804  TIP3      H1              8.4429378834       53.1898229506       83.6780997335  TIP3      2668            0.0000000000
     25378      2804  TIP3      H2              9.9121764070       53.5079851218       83.7013218643  TIP3      2668            0.0000000000
     25379      2805  TIP3      OH2             6.1477023090       53.7614205093       84.6807356059  TIP3      2669            0.0000000000
     25380      2805  TIP3      H1              6.1836765684       54.4938565966       84.0285635744  TIP3      2669            0.0000000000
     25381      2805  TIP3      H2              6.5493794757       54.1604744602       85.4701596483  TIP3      2669            0.0000000000
     25382      2806  TIP3      OH2             5.7242534782       40.2732740221       83.9508906730  TIP3      2670            0.0000000000
     25383      2806  TIP3      H1              6.0532177806       40.9835565745       84.5469375874  TIP3      2670            0.0000000000
     25384      2806  TIP3      H2              6.3966135319       39.5813507190       84.0584213994  TIP3      2670            0.0000000000
     25385      2807  TIP3      OH2             3.7219357127       51.3035765716       83.0497612908  TIP3      2671            0.0000000000
     25386      2807  TIP3      H1              4.0606320748       52.0954707905       83.5063665542  TIP3      2671            0.0000000000
     25387      2807  TIP3      H2              4.5614478195       50.9119073835       82.7676680192  TIP3      2671            0.0000000000
     25388      2808  TIP3      OH2             2.3146836253       44.2595777060       82.8068144649  TIP3      2672            0.0000000000
     25389      2808  TIP3      H1              2.1630941009       45.1720312962       82.4978823730  TIP3      2672            0.0000000000
     25390      2808  TIP3      H2              1.5528544697       43.7721791592       82.4741537282  TIP3      2672            0.0000000000
     25391      2809  TIP3      OH2            10.4771388201       53.8689562266       81.4402380284  TIP3      2673            0.0000000000
     25392      2809  TIP3      H1              9.9481475578       53.0440397118       81.3049489489  TIP3      2673            0.0000000000
     25393      2809  TIP3      H2             11.3227295776       53.5821351515       81.0279972152  TIP3      2673            0.0000000000
     25394      2810  TIP3      OH2            14.7032097370       53.0513985641       81.3100832275  TIP3      2674            0.0000000000
     25395      2810  TIP3      H1             14.9230615648       52.2899199329       81.8943388094  TIP3      2674            0.0000000000
     25396      2810  TIP3      H2             15.5506147268       53.2082150215       80.8377969559  TIP3      2674            0.0000000000
     25397      2811  TIP3      OH2             5.6992879457       49.0199100547       81.0631338697  TIP3      2675            0.0000000000
     25398      2811  TIP3      H1              5.8144792550       48.5304974233       81.9012735680  TIP3      2675            0.0000000000
     25399      2811  TIP3      H2              6.5579616143       48.8675969764       80.6169657988  TIP3      2675            0.0000000000
     25400      2812  TIP3      OH2            11.6168488804       50.6450349938       81.2808607289  TIP3      2676            0.0000000000
     25401      2812  TIP3      H1             11.3183749331       50.5813482379       82.2107769305  TIP3      2676            0.0000000000
     25402      2812  TIP3      H2             11.4293794300       49.7273998702       80.9693192994  TIP3      2676            0.0000000000
     25403      2813  TIP3      OH2             6.1023206807       47.3523645939       83.3114542598  TIP3      2677            0.0000000000
     25404      2813  TIP3      H1              5.9512161607       46.8993120717       84.1543032376  TIP3      2677            0.0000000000
     25405      2813  TIP3      H2              6.6776709394       46.7318091819       82.8309806475  TIP3      2677            0.0000000000
     25406      2814  TIP3      OH2             7.6737532617       45.6302060736       81.7242035465  TIP3      2678            0.0000000000
     25407      2814  TIP3      H1              7.5157954521       45.7228542502       80.7578817131  TIP3      2678            0.0000000000
     25408      2814  TIP3      H2              8.6553842259       45.6354805518       81.7287766854  TIP3      2678            0.0000000000
     25409      2815  TIP3      OH2            17.4519559047       47.7256087759       81.5480854484  TIP3      2679            0.0000000000
     25410      2815  TIP3      H1             17.3448738350       47.3931346117       80.6344237364  TIP3      2679            0.0000000000
     25411      2815  TIP3      H2             17.3950346733       48.7008218065       81.3897256737  TIP3      2679            0.0000000000
     25412      2816  TIP3      OH2             8.2148800034       56.0222469507       83.8793728504  TIP3      2680            0.0000000000
     25413      2816  TIP3      H1              8.8457805227       56.4857327539       83.3092824153  TIP3      2680            0.0000000000
     25414      2816  TIP3      H2              7.3618605592       56.3767218060       83.5246360239  TIP3      2680            0.0000000000
     25415      2817  TIP3      OH2             1.0833030519       50.6267515511       82.8115573034  TIP3      2681            0.0000000000
     25416      2817  TIP3      H1              2.0439072367       50.8437655421       82.8852924772  TIP3      2681            0.0000000000
     25417      2817  TIP3      H2              1.0260475939       50.4333989648       81.8685683188  TIP3      2681            0.0000000000
     25418      2818  TIP3      OH2            18.7327342051       46.5400031843       83.5287958107  TIP3      2682            0.0000000000
     25419      2818  TIP3      H1             18.3566955364       47.0408331500       82.7617206853  TIP3      2682            0.0000000000
     25420      2818  TIP3      H2             18.8238275680       47.2244291869       84.2259247928  TIP3      2682            0.0000000000
     25421      2819  TIP3      OH2            16.8367570734       43.9508408397       82.0047735164  TIP3      2683            0.0000000000
     25422      2819  TIP3      H1             17.0348186799       44.5091001285       81.2363269530  TIP3      2683            0.0000000000
     25423      2819  TIP3      H2             16.6119457318       43.0978002454       81.5871144538  TIP3      2683            0.0000000000
     25424      2820  TIP3      OH2            16.2958487903       41.1448111385       81.6484152611  TIP3      2684            0.0000000000
     25425      2820  TIP3      H1             16.9642772648       40.6795531755       82.2028728621  TIP3      2684            0.0000000000
     25426      2820  TIP3      H2             15.5826174756       41.2600450683       82.2965383275  TIP3      2684            0.0000000000
     25427      2821  TIP3      OH2            18.1887987878       39.9253249163       83.1729199196  TIP3      2685            0.0000000000
     25428      2821  TIP3      H1             18.5262774643       39.3110917174       82.4683565861  TIP3      2685            0.0000000000
     25429      2821  TIP3      H2             19.0206987622       40.3589225037       83.4662250674  TIP3      2685            0.0000000000
     25430      2822  TIP3      OH2             1.4540462797       38.2408094688       83.8279522893  TIP3      2686            0.0000000000
     25431      2822  TIP3      H1              1.0919951778       39.1058493656       83.5492776781  TIP3      2686            0.0000000000
     25432      2822  TIP3      H2              2.0918664552       38.5352050086       84.4957984717  TIP3      2686            0.0000000000
     25433      2823  TIP3      OH2             3.4530649230       40.3236042210       82.3338135962  TIP3      2687            0.0000000000
     25434      2823  TIP3      H1              4.0385644987       39.7517099402       81.7853796467  TIP3      2687            0.0000000000
     25435      2823  TIP3      H2              3.8720712876       40.2228978505       83.2091107963  TIP3      2687            0.0000000000
     25436      2824  TIP3      OH2            11.2521133689       54.8188597918       83.8070371425  TIP3      2688            0.0000000000
     25437      2824  TIP3      H1             12.1981137046       54.9773594501       83.6058115105  TIP3      2688            0.0000000000
     25438      2824  TIP3      H2             10.8669535966       54.8615314691       82.9006970521  TIP3      2688            0.0000000000
     25439      2825  TIP3      OH2             3.7853619984       54.8220720309       81.8160062479  TIP3      2689            0.0000000000
     25440      2825  TIP3      H1              3.1080787329       54.8076932040       82.4968203153  TIP3      2689            0.0000000000
     25441      2825  TIP3      H2              4.5193841479       55.2892659745       82.2793103354  TIP3      2689            0.0000000000
     25442      2826  TIP3      OH2            29.4727655204       45.8925891210       82.4616090440  TIP3      2690            0.0000000000
     25443      2826  TIP3      H1             30.3008486916       46.0300983302       82.9701459796  TIP3      2690            0.0000000000
     25444      2826  TIP3      H2             29.6706567206       45.0152580627       82.0960220444  TIP3      2690            0.0000000000
     25445      2827  TIP3      OH2            31.8603669677       46.2902051992       83.6580921300  TIP3      2691            0.0000000000
     25446      2827  TIP3      H1             31.5102804782       46.9589036726       84.2560049411  TIP3      2691            0.0000000000
     25447      2827  TIP3      H2             32.3924432925       46.8482800378       83.0371052752  TIP3      2691            0.0000000000
     25448      2828  TIP3      OH2            35.6195213114       37.9260309384       84.6001219493  TIP3      2692            0.0000000000
     25449      2828  TIP3      H1             34.7731623931       37.7554296117       84.1683486243  TIP3      2692            0.0000000000
     25450      2828  TIP3      H2             36.0220592331       38.6263357223       84.0406782846  TIP3      2692            0.0000000000
     25451      2829  TIP3      OH2            37.1188826557       52.5485282817       81.8126296118  TIP3      2693            0.0000000000
     25452      2829  TIP3      H1             37.0123411393       53.4743281728       82.0969892071  TIP3      2693            0.0000000000
     25453      2829  TIP3      H2             37.7999889126       52.2584110601       82.4410929153  TIP3      2693            0.0000000000
     25454      2830  TIP3      OH2            32.5705698114       54.6892591246       83.3150536112  TIP3      2694            0.0000000000
     25455      2830  TIP3      H1             32.8867242192       54.0633871738       82.6244635573  TIP3      2694            0.0000000000
     25456      2830  TIP3      H2             33.0491811665       54.3284418817       84.0925136095  TIP3      2694            0.0000000000
     25457      2831  TIP3      OH2            33.3223419917       47.9299331843       82.3024093528  TIP3      2695            0.0000000000
     25458      2831  TIP3      H1             33.0758926703       47.9025195512       81.3450812224  TIP3      2695            0.0000000000
     25459      2831  TIP3      H2             34.2838515422       47.8085002264       82.1935130638  TIP3      2695            0.0000000000
     25460      2832  TIP3      OH2            28.1927590621       41.5447431392       84.0360209819  TIP3      2696            0.0000000000
     25461      2832  TIP3      H1             28.6479728459       41.7249677158       84.8885762803  TIP3      2696            0.0000000000
     25462      2832  TIP3      H2             27.2807390254       41.6599317538       84.3547972792  TIP3      2696            0.0000000000
     25463      2833  TIP3      OH2            25.5600372502       41.3351390665       81.6362386924  TIP3      2697            0.0000000000
     25464      2833  TIP3      H1             25.1203516916       41.0954425562       82.4846025452  TIP3      2697            0.0000000000
     25465      2833  TIP3      H2             25.0192959983       42.1086072856       81.3733221192  TIP3      2697            0.0000000000
     25466      2834  TIP3      OH2            20.0800838109       41.6079961589       84.0736008377  TIP3      2698            0.0000000000
     25467      2834  TIP3      H1             20.6608755788       42.0261803609       83.4072714612  TIP3      2698            0.0000000000
     25468      2834  TIP3      H2             19.6124327240       42.4037651952       84.3860008816  TIP3      2698            0.0000000000
     25469      2835  TIP3      OH2            25.2967558870       43.8765631291       82.6284983437  TIP3      2699            0.0000000000
     25470      2835  TIP3      H1             24.7026891699       43.9028928530       81.8583151358  TIP3      2699            0.0000000000
     25471      2835  TIP3      H2             26.0422870982       44.4393433269       82.3273064966  TIP3      2699            0.0000000000
     25472      2836  TIP3      OH2            31.1626512072       41.6806441288       83.2175974786  TIP3      2700            0.0000000000
     25473      2836  TIP3      H1             30.4494158294       41.9281789412       83.8240401092  TIP3      2700            0.0000000000
     25474      2836  TIP3      H2             31.8035413750       42.3973308549       83.4647836987  TIP3      2700            0.0000000000
     25475      2837  TIP3      OH2            32.3111678602       43.7351413605       84.4412926008  TIP3      2701            0.0000000000
     25476      2837  TIP3      H1             33.1444121860       43.8368634692       84.9256229634  TIP3      2701            0.0000000000
     25477      2837  TIP3      H2             32.2116198908       44.6100455181       84.0022763434  TIP3      2701            0.0000000000
     25478      2838  TIP3      OH2            30.0030035578       50.3005679174       84.0087941637  TIP3      2702            0.0000000000
     25479      2838  TIP3      H1             29.4104321310       51.0846899975       84.0493887338  TIP3      2702            0.0000000000
     25480      2838  TIP3      H2             29.4854461264       49.6648421297       84.5144230523  TIP3      2702            0.0000000000
     25481      2839  TIP3      OH2            37.1627634328       43.8582937495       84.4532463390  TIP3      2703            0.0000000000
     25482      2839  TIP3      H1             36.7989848323       43.4055709614       83.6662912290  TIP3      2703            0.0000000000
     25483      2839  TIP3      H2             37.2883500114       44.7452210047       84.0605453333  TIP3      2703            0.0000000000
     25484      2840  TIP3      OH2            21.1881908352       46.6123398541       82.4138860261  TIP3      2704            0.0000000000
     25485      2840  TIP3      H1             21.7268540059       46.3641330389       83.1926957855  TIP3      2704            0.0000000000
     25486      2840  TIP3      H2             20.2949935919       46.5438471730       82.7965000746  TIP3      2704            0.0000000000
     25487      2841  TIP3      OH2            33.5942627748       50.7264176775       82.8401751125  TIP3      2705            0.0000000000
     25488      2841  TIP3      H1             33.2342498639       50.8938045533       83.7269873420  TIP3      2705            0.0000000000
     25489      2841  TIP3      H2             32.8842288264       50.1763426737       82.4422934186  TIP3      2705            0.0000000000
     25490      2842  TIP3      OH2            37.3657160391       54.9661542853       83.3084269570  TIP3      2706            0.0000000000
     25491      2842  TIP3      H1             38.1038077724       55.5908889286       83.3145201427  TIP3      2706            0.0000000000
     25492      2842  TIP3      H2             36.7535516001       55.3890149248       83.9418693975  TIP3      2706            0.0000000000
     25493      2843  TIP3      OH2            27.2798746050       51.4963759430       81.3829393558  TIP3      2707            0.0000000000
     25494      2843  TIP3      H1             26.8431369128       51.0869157458       80.6216956675  TIP3      2707            0.0000000000
     25495      2843  TIP3      H2             26.7741419558       51.0827671024       82.1070200609  TIP3      2707            0.0000000000
     25496      2844  TIP3      OH2            25.6588321576       51.1316932258       83.8669435398  TIP3      2708            0.0000000000
     25497      2844  TIP3      H1             26.1269042770       50.5768842202       84.5035835920  TIP3      2708            0.0000000000
     25498      2844  TIP3      H2             25.8332071426       52.0214740431       84.2342122697  TIP3      2708            0.0000000000
     25499      2845  TIP3      OH2            22.2957783485       48.7407138223       84.6949298965  TIP3      2709            0.0000000000
     25500      2845  TIP3      H1             22.3698591193       47.7667005085       84.6019572598  TIP3      2709            0.0000000000
     25501      2845  TIP3      H2             23.2261418915       48.9163482003       84.9436057285  TIP3      2709            0.0000000000
     25502      2846  TIP3      OH2            28.4169991929       52.4861239548       84.1995763886  TIP3      2710            0.0000000000
     25503      2846  TIP3      H1             27.5576850661       52.9473929450       84.3265463832  TIP3      2710            0.0000000000
     25504      2846  TIP3      H2             28.9087131025       53.1884277653       83.7421711554  TIP3      2710            0.0000000000
     25505      2847  TIP3      OH2            26.0719404162       53.6667064329       84.5481933650  TIP3      2711            0.0000000000
     25506      2847  TIP3      H1             25.7750948215       54.0258635343       83.6913826566  TIP3      2711            0.0000000000
     25507      2847  TIP3      H2             25.8432970204       54.3893109869       85.1526650999  TIP3      2711            0.0000000000
     25508      2848  TIP3      OH2            24.3731675361       40.2507826795       83.8875858914  TIP3      2712            0.0000000000
     25509      2848  TIP3      H1             24.0637686210       40.9656659929       84.4681341901  TIP3      2712            0.0000000000
     25510      2848  TIP3      H2             25.1673184498       39.9930232577       84.3811709758  TIP3      2712            0.0000000000
     25511      2849  TIP3      OH2            22.5904437222       51.1897515556       82.6755142151  TIP3      2713            0.0000000000
     25512      2849  TIP3      H1             23.0589679429       51.8248731335       83.2408055115  TIP3      2713            0.0000000000
     25513      2849  TIP3      H2             23.2576792439       50.4806555365       82.6238441303  TIP3      2713            0.0000000000
     25514      2850  TIP3      OH2            21.1002986248       43.7026214202       82.5292025088  TIP3      2714            0.0000000000
     25515      2850  TIP3      H1             21.7479172557       44.2095033025       83.0685265067  TIP3      2714            0.0000000000
     25516      2850  TIP3      H2             20.7464122276       44.3997325247       81.9553343701  TIP3      2714            0.0000000000
     25517      2851  TIP3      OH2            29.0621122461       53.6760015186       81.3887113231  TIP3      2715            0.0000000000
     25518      2851  TIP3      H1             28.5272973464       52.8511311391       81.3976494013  TIP3      2715            0.0000000000
     25519      2851  TIP3      H2             29.8475648143       53.3623204030       80.8784299728  TIP3      2715            0.0000000000
     25520      2852  TIP3      OH2            33.5864727363       53.0403115765       81.2604917596  TIP3      2716            0.0000000000
     25521      2852  TIP3      H1             33.6959332548       52.2661974951       81.8621105676  TIP3      2716            0.0000000000
     25522      2852  TIP3      H2             34.4714119718       53.0976907870       80.8498234436  TIP3      2716            0.0000000000
     25523      2853  TIP3      OH2            24.8514445229       49.3833292085       81.0735694651  TIP3      2717            0.0000000000
     25524      2853  TIP3      H1             24.9818793815       48.8832068477       81.8956505634  TIP3      2717            0.0000000000
     25525      2853  TIP3      H2             25.5719629034       49.0165260679       80.5083429782  TIP3      2717            0.0000000000
     25526      2854  TIP3      OH2            30.7460995843       50.3953612165       81.3310717103  TIP3      2718            0.0000000000
     25527      2854  TIP3      H1             30.4522454887       50.3821036162       82.2721681222  TIP3      2718            0.0000000000
     25528      2854  TIP3      H2             30.4138856164       49.5076416796       81.0400527257  TIP3      2718            0.0000000000
     25529      2855  TIP3      OH2            25.3014338752       47.1557567070       83.4260088930  TIP3      2719            0.0000000000
     25530      2855  TIP3      H1             24.5389902307       46.6658577016       83.8066074811  TIP3      2719            0.0000000000
     25531      2855  TIP3      H2             25.7388959310       46.4742880315       82.8814039967  TIP3      2719            0.0000000000
     25532      2856  TIP3      OH2            26.9707678038       45.6977334433       81.6848714620  TIP3      2720            0.0000000000
     25533      2856  TIP3      H1             26.7236210534       45.9216705854       80.7649318567  TIP3      2720            0.0000000000
     25534      2856  TIP3      H2             27.8931834718       46.0413410022       81.7179430312  TIP3      2720            0.0000000000
     25535      2857  TIP3      OH2            36.0816413416       47.6046742443       81.7548956299  TIP3      2721            0.0000000000
     25536      2857  TIP3      H1             36.0321767556       47.2855077766       80.8244557923  TIP3      2721            0.0000000000
     25537      2857  TIP3      H2             36.1348937856       48.5809014957       81.5746173467  TIP3      2721            0.0000000000
     25538      2858  TIP3      OH2            26.8338640883       56.3136015807       84.0282926295  TIP3      2722            0.0000000000
     25539      2858  TIP3      H1             27.7559179424       56.0078254464       83.9579109392  TIP3      2722            0.0000000000
     25540      2858  TIP3      H2             26.6749728749       56.6185601120       83.1133373601  TIP3      2722            0.0000000000
     25541      2859  TIP3      OH2            19.9534686349       50.5089374030       82.7581279171  TIP3      2723            0.0000000000
     25542      2859  TIP3      H1             20.9273393539       50.5349898304       82.9028099163  TIP3      2723            0.0000000000
     25543      2859  TIP3      H2             19.9343920369       49.8013292853       82.0814756647  TIP3      2723            0.0000000000
     25544      2860  TIP3      OH2            37.8495945332       46.5090721604       83.4841066005  TIP3      2724            0.0000000000
     25545      2860  TIP3      H1             37.2995292349       46.7812840474       82.7140180052  TIP3      2724            0.0000000000
     25546      2860  TIP3      H2             37.5318911722       47.1124173448       84.1785333858  TIP3      2724            0.0000000000
     25547      2861  TIP3      OH2            35.7476776275       43.7818622348       81.9381198355  TIP3      2725            0.0000000000
     25548      2861  TIP3      H1             35.8022240964       44.2485254697       81.0982790882  TIP3      2725            0.0000000000
     25549      2861  TIP3      H2             35.2869918533       42.9657686738       81.6745160962  TIP3      2725            0.0000000000
     25550      2862  TIP3      OH2            34.6898867234       41.1571785323       81.8057580490  TIP3      2726            0.0000000000
     25551      2862  TIP3      H1             35.4327486223       40.6583912287       82.2047046254  TIP3      2726            0.0000000000
     25552      2862  TIP3      H2             34.2316559653       41.3696077884       82.6315993524  TIP3      2726            0.0000000000
     25553      2863  TIP3      OH2            36.9162015389       39.8299919743       83.1199946094  TIP3      2727            0.0000000000
     25554      2863  TIP3      H1             37.2400760781       39.2753630337       82.3621471981  TIP3      2727            0.0000000000
     25555      2863  TIP3      H2             37.7585659663       40.2109222011       83.4565445034  TIP3      2727            0.0000000000
     25556      2864  TIP3      OH2            20.8684466047       38.2947653469       83.8922081407  TIP3      2728            0.0000000000
     25557      2864  TIP3      H1             21.1703981068       39.0727323751       83.3703283591  TIP3      2728            0.0000000000
     25558      2864  TIP3      H2             20.9729583200       38.6564364886       84.7931499682  TIP3      2728            0.0000000000
     25559      2865  TIP3      OH2            22.2070632257       40.1408496787       82.3957813202  TIP3      2729            0.0000000000
     25560      2865  TIP3      H1             22.6537707776       39.5367308854       81.7625618566  TIP3      2729            0.0000000000
     25561      2865  TIP3      H2             22.9190911363       40.2393785286       83.0713170760  TIP3      2729            0.0000000000
     25562      2866  TIP3      OH2            29.6440836024       55.1726222219       83.5416068221  TIP3      2730            0.0000000000
     25563      2866  TIP3      H1             30.6061612108       55.2845211791       83.4202568700  TIP3      2730            0.0000000000
     25564      2866  TIP3      H2             29.3764845207       54.8597299723       82.6427889521  TIP3      2730            0.0000000000
     25565      2867  TIP3      OH2            21.5596565058       54.8769391327       81.5530945444  TIP3      2731            0.0000000000
     25566      2867  TIP3      H1             21.2430603577       55.3413868335       82.3491865637  TIP3      2731            0.0000000000
     25567      2867  TIP3      H2             22.3205197721       54.3593179286       81.8608455639  TIP3      2731            0.0000000000
     25568      2868  TIP3      OH2            47.7948412812       44.8188030067       83.2570591849  TIP3      2732            0.0000000000
     25569      2868  TIP3      H1             48.2747854169       44.9269533000       84.0916631496  TIP3      2732            0.0000000000
     25570      2868  TIP3      H2             48.4508134750       45.2347474710       82.6466274489  TIP3      2732            0.0000000000
     25571      2869  TIP3      OH2            50.4394156856       46.2137361963       85.0468765091  TIP3      2733            0.0000000000
     25572      2869  TIP3      H1             51.2639485667       46.6478130708       85.3471902882  TIP3      2733            0.0000000000
     25573      2869  TIP3      H2             50.2900205180       46.5498722708       84.1381774227  TIP3      2733            0.0000000000
     25574      2870  TIP3      OH2            54.5623278721       38.1083824889       84.1342620503  TIP3      2734            0.0000000000
     25575      2870  TIP3      H1             53.6278069013       37.9036076626       84.0137960742  TIP3      2734            0.0000000000
     25576      2870  TIP3      H2             54.5884750721       39.0336173736       83.8407655099  TIP3      2734            0.0000000000
     25577      2871  TIP3      OH2            55.9769927001       52.4594765943       81.6935339645  TIP3      2735            0.0000000000
     25578      2871  TIP3      H1             55.5002663936       53.2572868259       81.9672868713  TIP3      2735            0.0000000000
     25579      2871  TIP3      H2             56.5625990438       52.3910890392       82.4733813536  TIP3      2735            0.0000000000
     25580      2872  TIP3      OH2            51.4999393404       54.7613676152       83.2057707449  TIP3      2736            0.0000000000
     25581      2872  TIP3      H1             51.7007705058       54.1992636893       82.4239425671  TIP3      2736            0.0000000000
     25582      2872  TIP3      H2             51.9506552750       54.2416920728       83.9005039131  TIP3      2736            0.0000000000
     25583      2873  TIP3      OH2            52.6822026630       47.5781562702       83.0012084118  TIP3      2737            0.0000000000
     25584      2873  TIP3      H1             51.9566537397       47.0077577208       82.6601216736  TIP3      2737            0.0000000000
     25585      2873  TIP3      H2             53.1594425602       47.7625959702       82.1698002221  TIP3      2737            0.0000000000
     25586      2874  TIP3      OH2            47.5132388807       40.8100587064       82.5172657669  TIP3      2738            0.0000000000
     25587      2874  TIP3      H1             47.1474102073       41.2406362602       83.2966189895  TIP3      2738            0.0000000000
     25588      2874  TIP3      H2             48.0041749176       40.0669992979       82.8953029017  TIP3      2738            0.0000000000
     25589      2875  TIP3      OH2            44.3044079310       42.0479933091       81.7908660654  TIP3      2739            0.0000000000
     25590      2875  TIP3      H1             43.7561342592       41.4532248646       82.3452829594  TIP3      2739            0.0000000000
     25591      2875  TIP3      H2             43.6290071512       42.6683178760       81.4428761016  TIP3      2739            0.0000000000
     25592      2876  TIP3      OH2            38.7990145579       41.5235673052       84.0722469932  TIP3      2740            0.0000000000
     25593      2876  TIP3      H1             39.5662890989       41.9331913475       83.6392649323  TIP3      2740            0.0000000000
     25594      2876  TIP3      H2             38.3392652071       42.3393697794       84.3478320302  TIP3      2740            0.0000000000
     25595      2877  TIP3      OH2            43.5353397465       44.6545253986       83.6184949631  TIP3      2741            0.0000000000
     25596      2877  TIP3      H1             42.7542016690       44.3112640434       83.1584315250  TIP3      2741            0.0000000000
     25597      2877  TIP3      H2             44.1685038042       44.7406057616       82.8808884302  TIP3      2741            0.0000000000
     25598      2878  TIP3      OH2            50.2063213202       42.0271925467       82.8559291989  TIP3      2742            0.0000000000
     25599      2878  TIP3      H1             49.3576300176       42.3519667163       83.1642067668  TIP3      2742            0.0000000000
     25600      2878  TIP3      H2             50.8048877322       42.5765799471       83.4196363763  TIP3      2742            0.0000000000
     25601      2879  TIP3      OH2            51.4217569481       43.7354966541       84.4227033630  TIP3      2743            0.0000000000
     25602      2879  TIP3      H1             52.0984501948       43.8416146006       85.1157558854  TIP3      2743            0.0000000000
     25603      2879  TIP3      H2             51.2307324615       44.6579260544       84.1713411114  TIP3      2743            0.0000000000
     25604      2880  TIP3      OH2            48.8133416130       50.2138651404       84.0272534565  TIP3      2744            0.0000000000
     25605      2880  TIP3      H1             48.3575519425       51.0671723304       84.0921275448  TIP3      2744            0.0000000000
     25606      2880  TIP3      H2             48.1952004698       49.5966527497       84.4459927918  TIP3      2744            0.0000000000
     25607      2881  TIP3      OH2            56.2241660519       43.8625856295       84.1838164298  TIP3      2745            0.0000000000
     25608      2881  TIP3      H1             55.4805995810       43.5974224970       83.6014520763  TIP3      2745            0.0000000000
     25609      2881  TIP3      H2             56.2780100979       44.8154390099       83.9505483039  TIP3      2745            0.0000000000
     25610      2882  TIP3      OH2            40.8298029414       46.8647404676       82.6601508063  TIP3      2746            0.0000000000
     25611      2882  TIP3      H1             40.9813286583       47.5902834652       83.3090301951  TIP3      2746            0.0000000000
     25612      2882  TIP3      H2             39.9188954048       46.6135753016       82.8999994053  TIP3      2746            0.0000000000
     25613      2883  TIP3      OH2            52.4059416062       50.8615758542       82.8514462737  TIP3      2747            0.0000000000
     25614      2883  TIP3      H1             52.2005232694       50.9664491041       83.7892947702  TIP3      2747            0.0000000000
     25615      2883  TIP3      H2             51.5882323300       50.4242538164       82.5531929810  TIP3      2747            0.0000000000
     25616      2884  TIP3      OH2            56.5592414441       55.1908538148       82.6799288096  TIP3      2748            0.0000000000
     25617      2884  TIP3      H1             57.0561668920       55.8613745764       83.1829925577  TIP3      2748            0.0000000000
     25618      2884  TIP3      H2             55.8636938211       54.9073915431       83.3039012533  TIP3      2748            0.0000000000
     25619      2885  TIP3      OH2            46.2038824766       51.9222188217       81.2075353567  TIP3      2749            0.0000000000
     25620      2885  TIP3      H1             45.7979280941       51.2356308108       80.6614873413  TIP3      2749            0.0000000000
     25621      2885  TIP3      H2             45.8557584980       51.6659153114       82.0778482314  TIP3      2749            0.0000000000
     25622      2886  TIP3      OH2            44.5487049639       51.1732443702       83.6598299349  TIP3      2750            0.0000000000
     25623      2886  TIP3      H1             45.3009160301       50.7893733693       84.1194817340  TIP3      2750            0.0000000000
     25624      2886  TIP3      H2             44.4285765839       51.9989260734       84.1708611961  TIP3      2750            0.0000000000
     25625      2887  TIP3      OH2            40.8129704656       48.6195437577       84.6893538410  TIP3      2751            0.0000000000
     25626      2887  TIP3      H1             40.4213451710       47.9379289961       85.2792172345  TIP3      2751            0.0000000000
     25627      2887  TIP3      H2             41.7518173169       48.5988828883       84.9729859491  TIP3      2751            0.0000000000
     25628      2888  TIP3      OH2            47.0517255208       52.7776890713       84.0110099359  TIP3      2752            0.0000000000
     25629      2888  TIP3      H1             46.2654461470       52.9996832224       84.5538851824  TIP3      2752            0.0000000000
     25630      2888  TIP3      H2             47.1900752915       53.5977767935       83.5003430941  TIP3      2752            0.0000000000
     25631      2889  TIP3      OH2            44.3878348344       53.4280712373       85.0509819916  TIP3      2753            0.0000000000
     25632      2889  TIP3      H1             44.4800921525       53.9354883146       84.2172493093  TIP3      2753            0.0000000000
     25633      2889  TIP3      H2             44.1276587038       54.1482030069       85.6459628018  TIP3      2753            0.0000000000
     25634      2890  TIP3      OH2            42.9097357442       40.7419328812       83.6977173137  TIP3      2754            0.0000000000
     25635      2890  TIP3      H1             42.7040281376       41.0502152178       84.5958925340  TIP3      2754            0.0000000000
     25636      2890  TIP3      H2             43.8837173623       40.7838494868       83.7851189319  TIP3      2754            0.0000000000
     25637      2891  TIP3      OH2            41.6792373230       51.1033575698       82.9100812352  TIP3      2755            0.0000000000
     25638      2891  TIP3      H1             42.4665480005       51.4778326310       83.3434013307  TIP3      2755            0.0000000000
     25639      2891  TIP3      H2             42.0627509943       50.2544262681       82.6390824591  TIP3      2755            0.0000000000
     25640      2892  TIP3      OH2            39.8415377531       43.8401772415       82.6660348028  TIP3      2756            0.0000000000
     25641      2892  TIP3      H1             40.4396597449       44.5788578017       82.5005827674  TIP3      2756            0.0000000000
     25642      2892  TIP3      H2             39.3115258216       43.8261221434       81.8594598357  TIP3      2756            0.0000000000
     25643      2893  TIP3      OH2            47.8456819389       54.0565968913       81.1475796655  TIP3      2757            0.0000000000
     25644      2893  TIP3      H1             47.3167885245       53.2175268170       81.2206791478  TIP3      2757            0.0000000000
     25645      2893  TIP3      H2             48.6822933748       53.6912849045       80.7962486031  TIP3      2757            0.0000000000
     25646      2894  TIP3      OH2            52.4307859147       53.1531689444       81.3005059681  TIP3      2758            0.0000000000
     25647      2894  TIP3      H1             52.7681947201       52.6179273073       82.0537738245  TIP3      2758            0.0000000000
     25648      2894  TIP3      H2             53.2254144154       53.2669388893       80.7362558321  TIP3      2758            0.0000000000
     25649      2895  TIP3      OH2            43.5678133967       48.9293040030       81.3716382627  TIP3      2759            0.0000000000
     25650      2895  TIP3      H1             43.9907831464       48.9092601778       82.2451266324  TIP3      2759            0.0000000000
     25651      2895  TIP3      H2             44.3164485342       48.7798663983       80.7461314220  TIP3      2759            0.0000000000
     25652      2896  TIP3      OH2            49.3993787368       50.4734593004       81.2926283829  TIP3      2760            0.0000000000
     25653      2896  TIP3      H1             49.2232103867       50.0662403757       82.1653763589  TIP3      2760            0.0000000000
     25654      2896  TIP3      H2             49.1315920822       49.7524411298       80.6765413699  TIP3      2760            0.0000000000
     25655      2897  TIP3      OH2            44.7365145182       47.4962299344       83.7212552808  TIP3      2761            0.0000000000
     25656      2897  TIP3      H1             44.1551219812       46.7957606310       84.0722430342  TIP3      2761            0.0000000000
     25657      2897  TIP3      H2             45.1799421521       47.0066192372       82.9995760625  TIP3      2761            0.0000000000
     25658      2898  TIP3      OH2            45.5412283452       45.7719170302       81.7558476299  TIP3      2762            0.0000000000
     25659      2898  TIP3      H1             45.6129400098       45.8338978316       80.7780702861  TIP3      2762            0.0000000000
     25660      2898  TIP3      H2             46.3557957476       45.3010126617       82.0423864367  TIP3      2762            0.0000000000
     25661      2899  TIP3      OH2            55.2158179735       47.7668766849       81.6069269459  TIP3      2763            0.0000000000
     25662      2899  TIP3      H1             55.2093431798       47.4178421739       80.6877040799  TIP3      2763            0.0000000000
     25663      2899  TIP3      H2             55.0060015208       48.7300393860       81.4434994190  TIP3      2763            0.0000000000
     25664      2900  TIP3      OH2            45.6174563770       55.5358466864       83.8985390071  TIP3      2764            0.0000000000
     25665      2900  TIP3      H1             46.4902164470       55.9586984322       83.8329567191  TIP3      2764            0.0000000000
     25666      2900  TIP3      H2             45.1140288924       56.0188181644       83.2195250976  TIP3      2764            0.0000000000
     25667      2901  TIP3      OH2            39.0138465809       50.8259315015       83.0975803477  TIP3      2765            0.0000000000
     25668      2901  TIP3      H1             39.9874064741       50.9777582996       83.1155091246  TIP3      2765            0.0000000000
     25669      2901  TIP3      H2             39.0114671556       50.1249637152       82.4321803491  TIP3      2765            0.0000000000
     25670      2902  TIP3      OH2            56.6987120256       46.4486282517       83.4817878101  TIP3      2766            0.0000000000
     25671      2902  TIP3      H1             56.1055840198       46.7513275221       82.7571149643  TIP3      2766            0.0000000000
     25672      2902  TIP3      H2             56.5898665246       47.1876282602       84.1153046269  TIP3      2766            0.0000000000
     25673      2903  TIP3      OH2            54.2533506690       43.8552236308       82.2787044169  TIP3      2767            0.0000000000
     25674      2903  TIP3      H1             53.7786747389       44.5123407754       81.7454390458  TIP3      2767            0.0000000000
     25675      2903  TIP3      H2             53.7274499505       43.0346884859       82.1061754780  TIP3      2767            0.0000000000
     25676      2904  TIP3      OH2            53.7004845014       41.3949988099       81.6333539560  TIP3      2768            0.0000000000
     25677      2904  TIP3      H1             54.2357473170       40.7456761053       82.1457069218  TIP3      2768            0.0000000000
     25678      2904  TIP3      H2             52.8216031214       40.9711736899       81.5477961444  TIP3      2768            0.0000000000
     25679      2905  TIP3      OH2            55.7453948168       40.0149099320       82.5973050231  TIP3      2769            0.0000000000
     25680      2905  TIP3      H1             56.1670234031       39.2549578457       82.1306291188  TIP3      2769            0.0000000000
     25681      2905  TIP3      H2             56.5384348663       40.4698992099       82.9419737148  TIP3      2769            0.0000000000
     25682      2906  TIP3      OH2            39.3392977200       38.2426403426       84.0593406408  TIP3      2770            0.0000000000
     25683      2906  TIP3      H1             39.6494883919       38.8098638086       83.3126260201  TIP3      2770            0.0000000000
     25684      2906  TIP3      H2             39.6056045709       38.7938083429       84.8266220797  TIP3      2770            0.0000000000
     25685      2907  TIP3      OH2            40.6468146144       39.5986284367       82.1789097372  TIP3      2771            0.0000000000
     25686      2907  TIP3      H1             41.2199497562       39.1924392484       81.4920760727  TIP3      2771            0.0000000000
     25687      2907  TIP3      H2             41.3234464423       39.8857505311       82.8274130798  TIP3      2771            0.0000000000
     25688      2908  TIP3      OH2            48.8108359760       55.1287342808       83.5331701630  TIP3      2772            0.0000000000
     25689      2908  TIP3      H1             49.7876806076       55.0319883088       83.5769233534  TIP3      2772            0.0000000000
     25690      2908  TIP3      H2             48.6527115696       55.1008773943       82.5692516826  TIP3      2772            0.0000000000
     25691      2909  TIP3      OH2            40.7128495497       55.4542075092       81.8530735623  TIP3      2773            0.0000000000
     25692      2909  TIP3      H1             40.4555442128       55.8899795260       82.7014172616  TIP3      2773            0.0000000000
     25693      2909  TIP3      H2             41.2791572704       54.7284859338       82.1534798855  TIP3      2773            0.0000000000
     25694      2910  TIP3      OH2            63.1003463594       41.5926511814       81.7820525044  TIP3      2774            0.0000000000
     25695      2910  TIP3      H1             62.3981543235       41.0978321872       82.2542861702  TIP3      2774            0.0000000000
     25696      2910  TIP3      H2             62.5533470305       42.2373155667       81.2831699864  TIP3      2774            0.0000000000
     25697      2911  TIP3      OH2            57.5541311467       41.4838080166       83.7959988031  TIP3      2775            0.0000000000
     25698      2911  TIP3      H1             58.4673255225       41.5577609076       83.4310988593  TIP3      2775            0.0000000000
     25699      2911  TIP3      H2             57.3850371830       42.4050907919       84.0848010380  TIP3      2775            0.0000000000
     25700      2912  TIP3      OH2            62.4563552596       44.6842066178       83.2358574703  TIP3      2776            0.0000000000
     25701      2912  TIP3      H1             61.8262948317       44.4572011791       82.5380777132  TIP3      2776            0.0000000000
     25702      2912  TIP3      H2             63.2956873800       44.7000751263       82.7276499151  TIP3      2776            0.0000000000
     25703      2913  TIP3      OH2            59.3297491958       46.6220238344       82.2873164317  TIP3      2777            0.0000000000
     25704      2913  TIP3      H1             59.8113124079       47.3157964534       82.8069446167  TIP3      2777            0.0000000000
     25705      2913  TIP3      H2             58.4377519864       46.7579890125       82.6585882671  TIP3      2777            0.0000000000
     25706      2914  TIP3      OH2            64.7176664997       52.0523891351       80.7538037208  TIP3      2778            0.0000000000
     25707      2914  TIP3      H1             64.7876475042       51.3473400614       80.1037377682  TIP3      2778            0.0000000000
     25708      2914  TIP3      H2             64.2609410763       51.5733949774       81.4596729652  TIP3      2778            0.0000000000
     25709      2915  TIP3      OH2            63.5642801751       50.9590983471       83.6399410690  TIP3      2779            0.0000000000
     25710      2915  TIP3      H1             64.5347897705       51.0157784967       83.6703454345  TIP3      2779            0.0000000000
     25711      2915  TIP3      H2             63.3093008446       51.7475828254       84.1838857022  TIP3      2779            0.0000000000
     25712      2916  TIP3      OH2            59.9373673253       48.4511428937       84.0340650626  TIP3      2780            0.0000000000
     25713      2916  TIP3      H1             59.6802838628       47.7663943731       84.6838662825  TIP3      2780            0.0000000000
     25714      2916  TIP3      H2             60.8166558514       48.7109548733       84.3847499788  TIP3      2780            0.0000000000
     25715      2917  TIP3      OH2            63.2478570711       53.2548899508       85.0089241830  TIP3      2781            0.0000000000
     25716      2917  TIP3      H1             63.1695603054       53.9982909086       84.3980331630  TIP3      2781            0.0000000000
     25717      2917  TIP3      H2             63.7842780871       53.6388530429       85.7157652798  TIP3      2781            0.0000000000
     25718      2918  TIP3      OH2            61.9697178639       40.5638996306       83.9352908655  TIP3      2782            0.0000000000
     25719      2918  TIP3      H1             62.0731297115       41.1298106702       84.7285893118  TIP3      2782            0.0000000000
     25720      2918  TIP3      H2             62.9016941816       40.6240028278       83.6685049498  TIP3      2782            0.0000000000
     25721      2919  TIP3      OH2            60.4648275687       51.0489841107       82.6800354952  TIP3      2783            0.0000000000
     25722      2919  TIP3      H1             61.1766515193       51.0283852279       83.3378786685  TIP3      2783            0.0000000000
     25723      2919  TIP3      H2             60.8011750951       50.3597018963       82.0640860544  TIP3      2783            0.0000000000
     25724      2920  TIP3      OH2            58.7437715406       43.7940740954       82.2905144520  TIP3      2784            0.0000000000
     25725      2920  TIP3      H1             59.4977124114       44.3416821025       82.5705820576  TIP3      2784            0.0000000000
     25726      2920  TIP3      H2             58.0329851714       44.3986677163       82.5308596782  TIP3      2784            0.0000000000
     25727      2921  TIP3      OH2            62.0827679083       49.1987380669       81.3820740390  TIP3      2785            0.0000000000
     25728      2921  TIP3      H1             62.5200768605       48.6799002826       82.0949119690  TIP3      2785            0.0000000000
     25729      2921  TIP3      H2             62.8689119953       49.3893831535       80.8458918872  TIP3      2785            0.0000000000
     25730      2922  TIP3      OH2            63.4122960425       47.3927807498       83.1174038612  TIP3      2786            0.0000000000
     25731      2922  TIP3      H1             63.1172591544       46.9670212812       83.9402689300  TIP3      2786            0.0000000000
     25732      2922  TIP3      H2             63.7044911027       46.6278290923       82.5877675376  TIP3      2786            0.0000000000
     25733      2923  TIP3      OH2            64.4578045768       45.4398046940       81.4736840410  TIP3      2787            0.0000000000
     25734      2923  TIP3      H1             64.1036689912       45.5895798110       80.5720946211  TIP3      2787            0.0000000000
     25735      2923  TIP3      H2             65.4027058919       45.5703517068       81.3064821134  TIP3      2787            0.0000000000
     25736      2924  TIP3      OH2            64.1181508980       55.8014878798       82.9213178972  TIP3      2788            0.0000000000
     25737      2924  TIP3      H1             64.9244716659       55.7857885877       83.4579205794  TIP3      2788            0.0000000000
     25738      2924  TIP3      H2             64.3601484856       56.4116950647       82.1863562498  TIP3      2788            0.0000000000
     25739      2925  TIP3      OH2            57.7384583513       50.8129013279       83.1123540346  TIP3      2789            0.0000000000
     25740      2925  TIP3      H1             58.7141832247       50.7986117592       83.0100517880  TIP3      2789            0.0000000000
     25741      2925  TIP3      H2             57.4645230354       50.6111582764       82.2056634823  TIP3      2789            0.0000000000
     25742      2926  TIP3      OH2            58.7033983595       37.7895959652       83.9881984281  TIP3      2790            0.0000000000
     25743      2926  TIP3      H1             59.4321530286       38.4181627844       83.8839854197  TIP3      2790            0.0000000000
     25744      2926  TIP3      H2             59.1095095524       37.2181899075       84.6917808040  TIP3      2790            0.0000000000
     25745      2927  TIP3      OH2            59.7725051254       40.6442190785       82.3825000369  TIP3      2791            0.0000000000
     25746      2927  TIP3      H1             60.1292419974       39.9649014476       81.7844200645  TIP3      2791            0.0000000000
     25747      2927  TIP3      H2             60.4465761375       40.5919498627       83.1124386887  TIP3      2791            0.0000000000
     25748      2928  TIP3      OH2            59.6622983968       54.8820640880       81.6608146962  TIP3      2792            0.0000000000
     25749      2928  TIP3      H1             59.3983150056       54.8841292797       82.5993831269  TIP3      2792            0.0000000000
     25750      2928  TIP3      H2             60.5456981366       54.4479363949       81.6660067302  TIP3      2792            0.0000000000
     25751      2929  TIP3      OH2            10.9433872199       64.5760012938       82.4167296274  TIP3      2793            0.0000000000
     25752      2929  TIP3      H1             11.6177678098       64.9311246809       83.0225745506  TIP3      2793            0.0000000000
     25753      2929  TIP3      H2             11.0458162684       63.6269376402       82.5564600504  TIP3      2793            0.0000000000
     25754      2930  TIP3      OH2            13.3697238121       65.5542056653       84.0152534239  TIP3      2794            0.0000000000
     25755      2930  TIP3      H1             13.8316536372       65.9286941072       84.7831465510  TIP3      2794            0.0000000000
     25756      2930  TIP3      H2             13.3241802297       66.2941632696       83.3860890938  TIP3      2794            0.0000000000
     25757      2931  TIP3      OH2            16.8494352629       56.8690564409       84.5502820828  TIP3      2795            0.0000000000
     25758      2931  TIP3      H1             16.1138173167       56.6685360639       83.9629531003  TIP3      2795            0.0000000000
     25759      2931  TIP3      H2             17.2728224905       57.5946784241       84.0486201681  TIP3      2795            0.0000000000
     25760      2932  TIP3      OH2            10.3616458300       59.8271548545       82.8864744954  TIP3      2796            0.0000000000
     25761      2932  TIP3      H1              9.4689806740       59.9921011737       83.2187676585  TIP3      2796            0.0000000000
     25762      2932  TIP3      H2             10.2090444324       59.0576462782       82.3047343204  TIP3      2796            0.0000000000
     25763      2933  TIP3      OH2             7.0260793759       59.8601835201       81.7434161621  TIP3      2797            0.0000000000
     25764      2933  TIP3      H1              6.3335023275       59.8226280277       82.4398484375  TIP3      2797            0.0000000000
     25765      2933  TIP3      H2              6.4872427950       59.7338108134       80.9482015941  TIP3      2797            0.0000000000
     25766      2934  TIP3      OH2             1.4580112394       60.9777937883       84.3542619792  TIP3      2798            0.0000000000
     25767      2934  TIP3      H1              2.0243963204       60.5823738721       83.6747180252  TIP3      2798            0.0000000000
     25768      2934  TIP3      H2              1.1238042644       61.7314619180       83.8304859304  TIP3      2798            0.0000000000
     25769      2935  TIP3      OH2             5.3656114540       63.0026834124       83.2859435933  TIP3      2799            0.0000000000
     25770      2935  TIP3      H1              5.1352302295       62.6198858482       82.4222849183  TIP3      2799            0.0000000000
     25771      2935  TIP3      H2              6.2374190558       63.3925280699       83.0598509548  TIP3      2799            0.0000000000
     25772      2936  TIP3      OH2            12.9630578842       60.4268167770       83.3855202007  TIP3      2800            0.0000000000
     25773      2936  TIP3      H1             11.9950084494       60.3646403022       83.5500115175  TIP3      2800            0.0000000000
     25774      2936  TIP3      H2             13.2248802209       61.1997431734       83.9336682462  TIP3      2800            0.0000000000
     25775      2937  TIP3      OH2            13.4875635875       62.8184516569       84.5381483792  TIP3      2801            0.0000000000
     25776      2937  TIP3      H1             14.3847703880       62.8024919296       84.9082849593  TIP3      2801            0.0000000000
     25777      2937  TIP3      H2             13.3771571067       63.7523906101       84.2637753011  TIP3      2801            0.0000000000
     25778      2938  TIP3      OH2            18.4941034644       62.4978874748       84.4663889932  TIP3      2802            0.0000000000
     25779      2938  TIP3      H1             17.8312496422       62.2621903689       83.7744038999  TIP3      2802            0.0000000000
     25780      2938  TIP3      H2             18.8285164322       63.3564893780       84.1378618317  TIP3      2802            0.0000000000
     25781      2939  TIP3      OH2             2.3059408327       65.1159622376       82.4591418725  TIP3      2803            0.0000000000
     25782      2939  TIP3      H1              2.9515196399       64.9911023929       83.1720499328  TIP3      2803            0.0000000000
     25783      2939  TIP3      H2              1.6648653606       65.6932375002       82.9157000834  TIP3      2803            0.0000000000
     25784      2940  TIP3      OH2             5.0591673090       59.8205462355       83.7687597939  TIP3      2804            0.0000000000
     25785      2940  TIP3      H1              5.6594522804       60.2611234380       84.3976195944  TIP3      2804            0.0000000000
     25786      2940  TIP3      H2              5.4013720156       58.8898460811       83.7223560914  TIP3      2804            0.0000000000
     25787      2941  TIP3      OH2             1.7730909635       62.4968900610       82.1803967271  TIP3      2805            0.0000000000
     25788      2941  TIP3      H1              1.9402141996       63.4614989702       82.2771141225  TIP3      2805            0.0000000000
     25789      2941  TIP3      H2              0.9572088454       62.4710360483       81.6626676346  TIP3      2805            0.0000000000
     25790      2942  TIP3      OH2             7.7882953637       63.9068824573       82.4000966402  TIP3      2806            0.0000000000
     25791      2942  TIP3      H1              7.5311864558       63.8952694798       81.4595538618  TIP3      2806            0.0000000000
     25792      2942  TIP3      H2              8.6602317044       64.3313890278       82.3661505754  TIP3      2806            0.0000000000
     25793      2943  TIP3      OH2            18.8930200117       64.8609834976       83.1195302518  TIP3      2807            0.0000000000
     25794      2943  TIP3      H1             18.2912348640       64.9994818405       82.3618351706  TIP3      2807            0.0000000000
     25795      2943  TIP3      H2             18.4282943088       65.2941465357       83.8465712234  TIP3      2807            0.0000000000
     25796      2944  TIP3      OH2            16.5319219224       62.4102193625       82.1291989599  TIP3      2808            0.0000000000
     25797      2944  TIP3      H1             17.0848238504       62.6756757436       81.3650347665  TIP3      2808            0.0000000000
     25798      2944  TIP3      H2             16.3947871971       61.4544425463       81.9750120335  TIP3      2808            0.0000000000
     25799      2945  TIP3      OH2            16.1988025270       59.8188993665       81.4986289803  TIP3      2809            0.0000000000
     25800      2945  TIP3      H1             16.8276194131       59.4148766228       82.1409575417  TIP3      2809            0.0000000000
     25801      2945  TIP3      H2             15.3700467176       59.7663557825       81.9944616419  TIP3      2809            0.0000000000
     25802      2946  TIP3      OH2            18.0803949853       58.5884935897       82.9610996746  TIP3      2810            0.0000000000
     25803      2946  TIP3      H1             18.3977050910       58.1411189252       82.1356991156  TIP3      2810            0.0000000000
     25804      2946  TIP3      H2             18.8733409940       59.1093069180       83.2351013188  TIP3      2810            0.0000000000
     25805      2947  TIP3      OH2             0.9226774662       56.5889120326       83.8376368367  TIP3      2811            0.0000000000
     25806      2947  TIP3      H1              0.9640527098       56.4125398741       82.8884456005  TIP3      2811            0.0000000000
     25807      2947  TIP3      H2              1.1539927796       57.5368755107       83.8760179889  TIP3      2811            0.0000000000
     25808      2948  TIP3      OH2             3.0212315280       58.8068370727       82.5088680372  TIP3      2812            0.0000000000
     25809      2948  TIP3      H1              3.5845279439       58.0093003085       82.5481732779  TIP3      2812            0.0000000000
     25810      2948  TIP3      H2              3.5561196673       59.3575188749       83.1212612600  TIP3      2812            0.0000000000
     25811      2949  TIP3      OH2            29.7870058621       64.0474496201       83.2044447552  TIP3      2813            0.0000000000
     25812      2949  TIP3      H1             30.5505395093       64.5644016985       83.5275011566  TIP3      2813            0.0000000000
     25813      2949  TIP3      H2             29.8003948952       63.3113649183       83.8225127633  TIP3      2813            0.0000000000
     25814      2950  TIP3      OH2            32.2442862436       65.3718362077       83.9310636848  TIP3      2814            0.0000000000
     25815      2950  TIP3      H1             32.6022365694       65.7482821244       84.7615691114  TIP3      2814            0.0000000000
     25816      2950  TIP3      H2             32.1357411174       66.1511452683       83.3602528740  TIP3      2814            0.0000000000
     25817      2951  TIP3      OH2            35.6288228330       56.7357611647       84.6343922746  TIP3      2815            0.0000000000
     25818      2951  TIP3      H1             34.7032553797       56.6465744438       84.3723482081  TIP3      2815            0.0000000000
     25819      2951  TIP3      H2             36.0215497159       57.3517871520       83.9679660688  TIP3      2815            0.0000000000
     25820      2952  TIP3      OH2            29.2522316653       59.7092272073       82.9454190672  TIP3      2816            0.0000000000
     25821      2952  TIP3      H1             28.3750999528       60.0283198165       83.1781255216  TIP3      2816            0.0000000000
     25822      2952  TIP3      H2             29.0682378926       58.8894165748       82.4702997252  TIP3      2816            0.0000000000
     25823      2953  TIP3      OH2            25.5760765318       59.8614778356       81.6604764889  TIP3      2817            0.0000000000
     25824      2953  TIP3      H1             24.9673186133       59.6216492713       82.4018787158  TIP3      2817            0.0000000000
     25825      2953  TIP3      H2             25.0980916134       60.6164045395       81.2741047106  TIP3      2817            0.0000000000
     25826      2954  TIP3      OH2            20.0224098559       60.2096279565       83.8246874939  TIP3      2818            0.0000000000
     25827      2954  TIP3      H1             20.9129612283       60.0983889747       83.4377873389  TIP3      2818            0.0000000000
     25828      2954  TIP3      H2             19.8840398808       61.1676043190       83.7423105814  TIP3      2818            0.0000000000
     25829      2955  TIP3      OH2            24.3832119059       62.5142428521       83.2973513201  TIP3      2819            0.0000000000
     25830      2955  TIP3      H1             23.7111507728       62.5530987361       82.5983009935  TIP3      2819            0.0000000000
     25831      2955  TIP3      H2             25.0704521455       63.1216816223       82.9532649299  TIP3      2819            0.0000000000
     25832      2956  TIP3      OH2            31.7675445390       60.6005110769       82.9622120759  TIP3      2820            0.0000000000
     25833      2956  TIP3      H1             30.8342873798       60.3291061078       83.1058313486  TIP3      2820            0.0000000000
     25834      2956  TIP3      H2             31.8061108549       61.4640800720       83.4258144654  TIP3      2820            0.0000000000
     25835      2957  TIP3      OH2            32.3010987138       62.7063396815       84.5900255864  TIP3      2821            0.0000000000
     25836      2957  TIP3      H1             33.2543097857       62.5697121525       84.7001499187  TIP3      2821            0.0000000000
     25837      2957  TIP3      H2             32.2968359123       63.4915772927       84.0043693809  TIP3      2821            0.0000000000
     25838      2958  TIP3      OH2            37.2325820185       62.5119924854       84.3784779036  TIP3      2822            0.0000000000
     25839      2958  TIP3      H1             36.7356164002       62.3470033503       83.5496055019  TIP3      2822            0.0000000000
     25840      2958  TIP3      H2             37.5958500331       63.4084500085       84.2238872783  TIP3      2822            0.0000000000
     25841      2959  TIP3      OH2            21.5780763572       65.0824250248       82.4038755009  TIP3      2823            0.0000000000
     25842      2959  TIP3      H1             22.0733507208       65.4147031481       83.1668121375  TIP3      2823            0.0000000000
     25843      2959  TIP3      H2             20.6423628330       65.1744868974       82.7019296160  TIP3      2823            0.0000000000
     25844      2960  TIP3      OH2            24.2603579922       59.3106944570       83.9200461741  TIP3      2824            0.0000000000
     25845      2960  TIP3      H1             24.1580794575       60.2104338654       84.2853801666  TIP3      2824            0.0000000000
     25846      2960  TIP3      H2             25.0797223586       59.0689180748       84.3879968344  TIP3      2824            0.0000000000
     25847      2961  TIP3      OH2            20.8965723484       62.5226263813       82.1582145511  TIP3      2825            0.0000000000
     25848      2961  TIP3      H1             21.3014729503       63.3853485320       82.3742857870  TIP3      2825            0.0000000000
     25849      2961  TIP3      H2             20.0025200849       62.8233619747       81.9235295505  TIP3      2825            0.0000000000
     25850      2962  TIP3      OH2            26.7917355125       63.9268675641       82.5432524297  TIP3      2826            0.0000000000
     25851      2962  TIP3      H1             26.5341990857       64.2175152443       81.6539076271  TIP3      2826            0.0000000000
     25852      2962  TIP3      H2             27.7550542348       64.1109828822       82.5433087668  TIP3      2826            0.0000000000
     25853      2963  TIP3      OH2            37.4418882813       65.0568580117       83.1242462263  TIP3      2827            0.0000000000
     25854      2963  TIP3      H1             37.2906687307       65.1420034010       82.1677819334  TIP3      2827            0.0000000000
     25855      2963  TIP3      H2             36.5356358553       65.0091790767       83.4663730076  TIP3      2827            0.0000000000
     25856      2964  TIP3      OH2            35.4235258973       62.4827258514       81.8967028473  TIP3      2828            0.0000000000
     25857      2964  TIP3      H1             35.9065987492       62.7879136465       81.1111904943  TIP3      2828            0.0000000000
     25858      2964  TIP3      H2             35.3384003413       61.5238270012       81.7185923377  TIP3      2828            0.0000000000
     25859      2965  TIP3      OH2            35.1154536378       59.7787236778       81.4144443797  TIP3      2829            0.0000000000
     25860      2965  TIP3      H1             35.7218109186       59.3081369894       82.0242160096  TIP3      2829            0.0000000000
     25861      2965  TIP3      H2             34.2979706362       59.7873401972       81.9402364179  TIP3      2829            0.0000000000
     25862      2966  TIP3      OH2            37.0774204395       58.4309863788       83.1392750883  TIP3      2830            0.0000000000
     25863      2966  TIP3      H1             37.4223919834       57.9665683618       82.3370158676  TIP3      2830            0.0000000000
     25864      2966  TIP3      H2             37.8624571728       58.9451304766       83.4235219107  TIP3      2830            0.0000000000
     25865      2967  TIP3      OH2            20.8001579793       56.7919443267       83.8733531935  TIP3      2831            0.0000000000
     25866      2967  TIP3      H1             20.7669283006       57.5706394112       83.2985218826  TIP3      2831            0.0000000000
     25867      2967  TIP3      H2             20.8059601240       57.2290003332       84.7488280240  TIP3      2831            0.0000000000
     25868      2968  TIP3      OH2            22.0727275839       59.0141751990       82.4131258828  TIP3      2832            0.0000000000
     25869      2968  TIP3      H1             22.6013887156       58.4112820046       81.8496500763  TIP3      2832            0.0000000000
     25870      2968  TIP3      H2             22.6245727949       58.9753928821       83.2237713499  TIP3      2832            0.0000000000
     25871      2969  TIP3      OH2            48.6480089498       64.3447050493       82.8909590770  TIP3      2833            0.0000000000
     25872      2969  TIP3      H1             49.4495482211       64.6064853936       83.3788463364  TIP3      2833            0.0000000000
     25873      2969  TIP3      H2             48.7761230938       63.4010209610       82.7754555342  TIP3      2833            0.0000000000
     25874      2970  TIP3      OH2            51.2482953453       65.2416804394       83.9330920699  TIP3      2834            0.0000000000
     25875      2970  TIP3      H1             51.5175300852       65.8250698612       84.6585019596  TIP3      2834            0.0000000000
     25876      2970  TIP3      H2             51.1596272448       65.8687609676       83.1774399488  TIP3      2834            0.0000000000
     25877      2971  TIP3      OH2            54.4345917153       56.9683496964       84.5278488877  TIP3      2835            0.0000000000
     25878      2971  TIP3      H1             54.1075742724       56.0638681737       84.3444322820  TIP3      2835            0.0000000000
     25879      2971  TIP3      H2             54.8567285750       57.2207618582       83.6947562888  TIP3      2835            0.0000000000
     25880      2972  TIP3      OH2            48.1343011965       59.8553061205       82.9366427787  TIP3      2836            0.0000000000
     25881      2972  TIP3      H1             47.3675290015       59.9376783145       83.5148786273  TIP3      2836            0.0000000000
     25882      2972  TIP3      H2             47.9622074412       59.0307293609       82.4651144327  TIP3      2836            0.0000000000
     25883      2973  TIP3      OH2            44.2414849883       60.4733566441       81.6291801003  TIP3      2837            0.0000000000
     25884      2973  TIP3      H1             43.6853259988       60.2275743971       82.3943023575  TIP3      2837            0.0000000000
     25885      2973  TIP3      H2             43.8566385432       61.3198450504       81.3192383705  TIP3      2837            0.0000000000
     25886      2974  TIP3      OH2            38.8853385597       60.3056539694       84.0207114878  TIP3      2838            0.0000000000
     25887      2974  TIP3      H1             39.6247663703       60.6307361332       83.4814265182  TIP3      2838            0.0000000000
     25888      2974  TIP3      H2             38.4094458378       61.1519617496       84.1578034392  TIP3      2838            0.0000000000
     25889      2975  TIP3      OH2            43.1224422866       63.1326540550       83.3975371643  TIP3      2839            0.0000000000
     25890      2975  TIP3      H1             42.6646919639       62.8795547500       82.5772269499  TIP3      2839            0.0000000000
     25891      2975  TIP3      H2             44.0112391097       63.3693234593       83.0617709337  TIP3      2839            0.0000000000
     25892      2976  TIP3      OH2            51.0143092103       60.2841480236       83.3505100206  TIP3      2840            0.0000000000
     25893      2976  TIP3      H1             50.0462535559       60.1993142420       83.4591462536  TIP3      2840            0.0000000000
     25894      2976  TIP3      H2             51.1590224453       61.1475305658       83.7993398673  TIP3      2840            0.0000000000
     25895      2977  TIP3      OH2            51.4593120483       62.5583812658       84.6950430779  TIP3      2841            0.0000000000
     25896      2977  TIP3      H1             52.3163516354       62.4219734838       85.1538721736  TIP3      2841            0.0000000000
     25897      2977  TIP3      H2             51.6089052180       63.4147720529       84.2445606100  TIP3      2841            0.0000000000
     25898      2978  TIP3      OH2            56.4869151304       62.5376385709       84.3266153449  TIP3      2842            0.0000000000
     25899      2978  TIP3      H1             55.7962590807       62.3220868936       83.6762044390  TIP3      2842            0.0000000000
     25900      2978  TIP3      H2             56.6238853677       63.4971692291       84.1418175956  TIP3      2842            0.0000000000
     25901      2979  TIP3      OH2            40.4753295715       65.0767164468       82.5525182756  TIP3      2843            0.0000000000
     25902      2979  TIP3      H1             40.9217951102       65.2497799685       83.4008331865  TIP3      2843            0.0000000000
     25903      2979  TIP3      H2             39.5558322357       65.2846548555       82.8105804720  TIP3      2843            0.0000000000
     25904      2980  TIP3      OH2            43.1319771427       59.1599248106       83.8143089715  TIP3      2844            0.0000000000
     25905      2980  TIP3      H1             43.6467417358       59.7265488630       84.4394889362  TIP3      2844            0.0000000000
     25906      2980  TIP3      H2             43.8149654927       58.5405582499       83.5370792790  TIP3      2844            0.0000000000
     25907      2981  TIP3      OH2            39.8425673395       62.4059509771       82.5409812508  TIP3      2845            0.0000000000
     25908      2981  TIP3      H1             40.0808322880       63.3487190875       82.4922004568  TIP3      2845            0.0000000000
     25909      2981  TIP3      H2             39.7019989689       62.2096852123       81.6056675363  TIP3      2845            0.0000000000
     25910      2982  TIP3      OH2            45.5888192724       64.1596350903       82.3105306660  TIP3      2846            0.0000000000
     25911      2982  TIP3      H1             45.6196746340       64.4630669576       81.3772739018  TIP3      2846            0.0000000000
     25912      2982  TIP3      H2             46.5322495908       64.3008899897       82.5063764964  TIP3      2846            0.0000000000
     25913      2983  TIP3      OH2            56.6338160894       65.0667167258       83.3660023070  TIP3      2847            0.0000000000
     25914      2983  TIP3      H1             56.1576846238       65.2801979218       82.5420592936  TIP3      2847            0.0000000000
     25915      2983  TIP3      H2             56.3453328071       65.7740482963       83.9708465032  TIP3      2847            0.0000000000
     25916      2984  TIP3      OH2            54.3123516278       62.5270528767       82.1088806808  TIP3      2848            0.0000000000
     25917      2984  TIP3      H1             54.9579477641       62.8561527672       81.4509711977  TIP3      2848            0.0000000000
     25918      2984  TIP3      H2             54.2202213561       61.5822966064       81.8650143288  TIP3      2848            0.0000000000
     25919      2985  TIP3      OH2            53.9194156771       59.9663755793       81.5692624866  TIP3      2849            0.0000000000
     25920      2985  TIP3      H1             54.6268174690       59.4977445300       82.0736269688  TIP3      2849            0.0000000000
     25921      2985  TIP3      H2             53.2384010723       60.0150901822       82.2699985630  TIP3      2849            0.0000000000
     25922      2986  TIP3      OH2            55.9177709392       58.8058025364       82.8279384912  TIP3      2850            0.0000000000
     25923      2986  TIP3      H1             56.0466947054       58.2530708971       82.0206144489  TIP3      2850            0.0000000000
     25924      2986  TIP3      H2             56.7433957044       58.6323146768       83.3086307176  TIP3      2850            0.0000000000
     25925      2987  TIP3      OH2            39.8167077651       57.1163324772       83.9044657574  TIP3      2851            0.0000000000
     25926      2987  TIP3      H1             40.0246106852       57.9521536903       83.4426446701  TIP3      2851            0.0000000000
     25927      2987  TIP3      H2             39.8049522555       57.4577010787       84.8179494529  TIP3      2851            0.0000000000
     25928      2988  TIP3      OH2            40.9965545023       59.1046856113       82.2803572515  TIP3      2852            0.0000000000
     25929      2988  TIP3      H1             41.5116503144       58.5198833944       81.6873245073  TIP3      2852            0.0000000000
     25930      2988  TIP3      H2             41.6588061434       59.2598916078       82.9900100983  TIP3      2852            0.0000000000
     25931      2989  TIP3      OH2            63.1845892644       59.9123974300       81.7263100599  TIP3      2853            0.0000000000
     25932      2989  TIP3      H1             62.7598105448       59.6676699345       82.5735636345  TIP3      2853            0.0000000000
     25933      2989  TIP3      H2             62.7502579228       60.7503019950       81.4868181178  TIP3      2853            0.0000000000
     25934      2990  TIP3      OH2            57.9256287156       59.7684225393       84.5834284805  TIP3      2854            0.0000000000
     25935      2990  TIP3      H1             58.7322555073       60.0476301828       84.1259950612  TIP3      2854            0.0000000000
     25936      2990  TIP3      H2             57.3630998987       60.5477007044       84.4830725259  TIP3      2854            0.0000000000
     25937      2991  TIP3      OH2            62.0689342818       63.1744982667       83.2197567247  TIP3      2855            0.0000000000
     25938      2991  TIP3      H1             61.3820651688       63.0591538786       82.5474267800  TIP3      2855            0.0000000000
     25939      2991  TIP3      H2             62.8151095995       63.5010377138       82.6876545530  TIP3      2855            0.0000000000
     25940      2992  TIP3      OH2            59.5380110523       65.1567889007       82.4484410840  TIP3      2856            0.0000000000
     25941      2992  TIP3      H1             59.8559002647       65.6394433700       83.2361880834  TIP3      2856            0.0000000000
     25942      2992  TIP3      H2             58.5732664791       65.2609776571       82.5872078849  TIP3      2856            0.0000000000
     25943      2993  TIP3      OH2            61.8175802093       59.5952029787       84.2172186545  TIP3      2857            0.0000000000
     25944      2993  TIP3      H1             61.5589727305       60.4382733610       84.6206718292  TIP3      2857            0.0000000000
     25945      2993  TIP3      H2             62.7166526938       59.5667465523       84.5912569178  TIP3      2857            0.0000000000
     25946      2994  TIP3      OH2            58.8377478755       62.5324189906       82.2891278008  TIP3      2858            0.0000000000
     25947      2994  TIP3      H1             59.1407674698       63.4529283912       82.4017820009  TIP3      2858            0.0000000000
     25948      2994  TIP3      H2             57.8845875425       62.6435731299       82.1629856441  TIP3      2858            0.0000000000
     25949      2995  TIP3      OH2            64.5380881311       64.3541483633       81.8549898404  TIP3      2859            0.0000000000
     25950      2995  TIP3      H1             64.5153036824       64.0811871807       80.9142181208  TIP3      2859            0.0000000000
     25951      2995  TIP3      H2             65.0979657464       65.1430231272       81.7629134972  TIP3      2859            0.0000000000
     25952      2996  TIP3      OH2            58.3044221556       57.0420928911       83.7575366541  TIP3      2860            0.0000000000
     25953      2996  TIP3      H1             58.7434294092       57.8151084803       83.3465845901  TIP3      2860            0.0000000000
     25954      2996  TIP3      H2             58.3677489490       57.2770111862       84.7017128998  TIP3      2860            0.0000000000
     25955      2997  TIP3      OH2            59.8539481125       59.0117439477       82.4959019417  TIP3      2861            0.0000000000
     25956      2997  TIP3      H1             60.3984950780       58.5012742232       81.8581563432  TIP3      2861            0.0000000000
     25957      2997  TIP3      H2             60.4677996120       59.0134443952       83.2638426503  TIP3      2861            0.0000000000
     25958      2998  TIP3      OH2            12.5307362950        9.9996586547        6.6843186700  TIP3      2862            0.0000000000
     25959      2998  TIP3      H1             12.4608765777       10.9561561173        6.9054893541  TIP3      2862            0.0000000000
     25960      2998  TIP3      H2             11.8513462133        9.9551231590        5.9923734726  TIP3      2862            0.0000000000
     25961      2999  TIP3      OH2            10.9458872734        8.6713395306       10.1201008356  TIP3      2863            0.0000000000
     25962      2999  TIP3      H1             11.0294790594        8.4168490839       11.0670772561  TIP3      2863            0.0000000000
     25963      2999  TIP3      H2             10.3837165778        7.9394660796        9.7796233021  TIP3      2863            0.0000000000
     25964      3000  TIP3      OH2             3.1531867257        8.0794200435       11.4798413361  TIP3      2864            0.0000000000
     25965      3000  TIP3      H1              3.2404259222        7.3763896476       12.1611232040  TIP3      2864            0.0000000000
     25966      3000  TIP3      H2              3.6422993561        8.8144247296       11.9040770888  TIP3      2864            0.0000000000
     25967      3001  TIP3      OH2            14.2091830208       11.6512721959        8.5843026031  TIP3      2865            0.0000000000
     25968      3001  TIP3      H1             14.0330431834       10.8878473948        9.1461076217  TIP3      2865            0.0000000000
     25969      3001  TIP3      H2             14.5291811678       12.3141466448        9.2177413987  TIP3      2865            0.0000000000
     25970      3002  TIP3      OH2             3.9247449645       13.3752455919        9.9168732857  TIP3      2866            0.0000000000
     25971      3002  TIP3      H1              3.6398089573       12.4837088565        9.6477495430  TIP3      2866            0.0000000000
     25972      3002  TIP3      H2              4.8407118740       13.1478286636       10.1382369302  TIP3      2866            0.0000000000
     25973      3003  TIP3      OH2             1.6260569831        7.8196827242        5.4170817111  TIP3      2867            0.0000000000
     25974      3003  TIP3      H1              1.0298910882        8.5004606728        5.7646746487  TIP3      2867            0.0000000000
     25975      3003  TIP3      H2              0.9718394706        7.2147977638        5.0391110598  TIP3      2867            0.0000000000
     25976      3004  TIP3      OH2             1.4068986195        8.9158831093        8.5359195608  TIP3      2868            0.0000000000
     25977      3004  TIP3      H1              1.7957349732        8.0119750782        8.6224371684  TIP3      2868            0.0000000000
     25978      3004  TIP3      H2              1.9277375246        9.2704748875        7.8018147038  TIP3      2868            0.0000000000
     25979      3005  TIP3      OH2            12.1767428970       17.2783834106        8.9072180883  TIP3      2869            0.0000000000
     25980      3005  TIP3      H1             12.7925695120       16.7143958774        8.3982366240  TIP3      2869            0.0000000000
     25981      3005  TIP3      H2             11.5764458102       16.6094642618        9.2507417048  TIP3      2869            0.0000000000
     25982      3006  TIP3      OH2             9.0411455297       11.9392881956       11.1784724779  TIP3      2870            0.0000000000
     25983      3006  TIP3      H1              9.1945364151       11.3588300147       10.4221588777  TIP3      2870            0.0000000000
     25984      3006  TIP3      H2              9.9615624138       11.9955716792       11.5249712503  TIP3      2870            0.0000000000
     25985      3007  TIP3      OH2            17.6089553836        3.0534480464       11.0907802420  TIP3      2871            0.0000000000
     25986      3007  TIP3      H1             18.0640593733        3.7016868937       11.6563076889  TIP3      2871            0.0000000000
     25987      3007  TIP3      H2             18.2589847509        2.9532864518       10.3742728847  TIP3      2871            0.0000000000
     25988      3008  TIP3      OH2            12.9094508197        6.0835061179       11.2114300196  TIP3      2872            0.0000000000
     25989      3008  TIP3      H1             12.9040726317        5.1025940043       11.2177271298  TIP3      2872            0.0000000000
     25990      3008  TIP3      H2             12.8443555474        6.2542568896       10.2482405055  TIP3      2872            0.0000000000
     25991      3009  TIP3      OH2             5.4392879651        4.0475179871        8.1117352236  TIP3      2873            0.0000000000
     25992      3009  TIP3      H1              5.8562765077        4.7412942512        7.5764118805  TIP3      2873            0.0000000000
     25993      3009  TIP3      H2              5.2499573231        3.3504131173        7.4381419724  TIP3      2873            0.0000000000
     25994      3010  TIP3      OH2            13.4976285902        4.0084671705        6.8244224006  TIP3      2874            0.0000000000
     25995      3010  TIP3      H1             14.0007651850        3.8039367999        7.6455905661  TIP3      2874            0.0000000000
     25996      3010  TIP3      H2             14.0793871037        4.6591598877        6.4009203626  TIP3      2874            0.0000000000
     25997      3011  TIP3      OH2             2.5836726008        6.4640217887        8.7580977329  TIP3      2875            0.0000000000
     25998      3011  TIP3      H1              3.2540382566        6.2005445246        9.4055840565  TIP3      2875            0.0000000000
     25999      3011  TIP3      H2              2.3708738331        5.6258811351        8.3274402242  TIP3      2875            0.0000000000
     26000      3012  TIP3      OH2             6.9955590894        8.1573158653        8.3250309653  TIP3      2876            0.0000000000
     26001      3012  TIP3      H1              7.8485722647        7.7385269980        8.5283066175  TIP3      2876            0.0000000000
     26002      3012  TIP3      H2              6.6047915757        7.4780331286        7.7344884204  TIP3      2876            0.0000000000
     26003      3013  TIP3      OH2            18.1363742601        4.7158785372       13.8255827403  TIP3      2877            0.0000000000
     26004      3013  TIP3      H1             17.7687367131        5.4844085205       13.3348906312  TIP3      2877            0.0000000000
     26005      3013  TIP3      H2             17.3393734520        4.3741107637       14.2777704185  TIP3      2877            0.0000000000
     26006      3014  TIP3      OH2             4.9020871363        2.8019543162       12.0885084383  TIP3      2878            0.0000000000
     26007      3014  TIP3      H1              4.6335325109        3.4709440351       11.4139381642  TIP3      2878            0.0000000000
     26008      3014  TIP3      H2              4.2420394516        2.9902996773       12.7875582802  TIP3      2878            0.0000000000
     26009      3015  TIP3      OH2            11.6485721340       12.3822254082        5.8590311529  TIP3      2879            0.0000000000
     26010      3015  TIP3      H1             11.4380360260       12.3149210255        4.9106881454  TIP3      2879            0.0000000000
     26011      3015  TIP3      H2             11.5785537373       13.3524982173        6.0047242985  TIP3      2879            0.0000000000
     26012      3016  TIP3      OH2             6.8179795800       10.6695024934       12.0762655632  TIP3      2880            0.0000000000
     26013      3016  TIP3      H1              6.2110660541       11.3925076206       12.3452170824  TIP3      2880            0.0000000000
     26014      3016  TIP3      H2              7.5779010350       11.1885370609       11.7423572508  TIP3      2880            0.0000000000
     26015      3017  TIP3      OH2            15.1302023444        4.1950451753        9.0663571777  TIP3      2881            0.0000000000
     26016      3017  TIP3      H1             15.4162741489        3.2620172908        9.2050199477  TIP3      2881            0.0000000000
     26017      3017  TIP3      H2             15.5909030931        4.6345495630        9.8083281554  TIP3      2881            0.0000000000
     26018      3018  TIP3      OH2             4.1916180554        4.7801512770       10.3450213785  TIP3      2882            0.0000000000
     26019      3018  TIP3      H1              4.7551879694        5.5095767561       10.7115609628  TIP3      2882            0.0000000000
     26020      3018  TIP3      H2              4.7155529287        4.5347933309        9.5454296934  TIP3      2882            0.0000000000
     26021      3019  TIP3      OH2             5.6689078851       12.9626015439       13.0168150060  TIP3      2883            0.0000000000
     26022      3019  TIP3      H1              5.4885011000       13.9109179408       12.9083841704  TIP3      2883            0.0000000000
     26023      3019  TIP3      H2              4.8831868915       12.6933585242       13.5492695477  TIP3      2883            0.0000000000
     26024      3020  TIP3      OH2             1.3771148706       11.4420448985        4.8456286046  TIP3      2884            0.0000000000
     26025      3020  TIP3      H1              0.4951028551       11.3841480572        4.4028373582  TIP3      2884            0.0000000000
     26026      3020  TIP3      H2              1.3229778198       12.2931992326        5.2914025984  TIP3      2884            0.0000000000
     26027      3021  TIP3      OH2            14.8561644109       13.7532977091       10.4142804575  TIP3      2885            0.0000000000
     26028      3021  TIP3      H1             13.9114804649       13.9046933281       10.6300647680  TIP3      2885            0.0000000000
     26029      3021  TIP3      H2             14.9202236887       14.2637584122        9.5811545543  TIP3      2885            0.0000000000
     26030      3022  TIP3      OH2            15.1623463520        2.8763667183       12.6356890439  TIP3      2886            0.0000000000
     26031      3022  TIP3      H1             14.3202401763        3.0378150585       12.1577144703  TIP3      2886            0.0000000000
     26032      3022  TIP3      H2             15.7783998941        2.9399823111       11.8816523820  TIP3      2886            0.0000000000
     26033      3023  TIP3      OH2             8.5841609460        0.7322811368        9.7734564852  TIP3      2887            0.0000000000
     26034      3023  TIP3      H1              8.4871699814       -0.1012155400       10.2547915402  TIP3      2887            0.0000000000
     26035      3023  TIP3      H2              7.6784723857        1.1062533932        9.8790642059  TIP3      2887            0.0000000000
     26036      3024  TIP3      OH2            14.0838704598       15.3255708151        8.1810132717  TIP3      2888            0.0000000000
     26037      3024  TIP3      H1             13.7700047213       14.9705722150        7.3201542945  TIP3      2888            0.0000000000
     26038      3024  TIP3      H2             14.7111813563       16.0245649600        7.8640693110  TIP3      2888            0.0000000000
     26039      3025  TIP3      OH2            14.4764798854       13.4683666818        5.8693771628  TIP3      2889            0.0000000000
     26040      3025  TIP3      H1             14.4108326232       12.7010456790        5.2805815046  TIP3      2889            0.0000000000
     26041      3025  TIP3      H2             14.2981849627       13.0748585047        6.7313847043  TIP3      2889            0.0000000000
     26042      3026  TIP3      OH2            16.0784022127       12.1777692244       14.2793695933  TIP3      2890            0.0000000000
     26043      3026  TIP3      H1             15.7527229478       11.7031803376       13.4794146461  TIP3      2890            0.0000000000
     26044      3026  TIP3      H2             16.9358967818       11.7464537566       14.3259017083  TIP3      2890            0.0000000000
     26045      3027  TIP3      OH2            10.4963024092        8.7817311210        4.1289719205  TIP3      2891            0.0000000000
     26046      3027  TIP3      H1              9.8678993055        9.5081613692        3.9271692942  TIP3      2891            0.0000000000
     26047      3027  TIP3      H2             11.2470249705        8.9912923054        3.5437389626  TIP3      2891            0.0000000000
     26048      3028  TIP3      OH2            10.6751769009        8.0236509072        1.3948330035  TIP3      2892            0.0000000000
     26049      3028  TIP3      H1             11.4672497293        8.1590162829        1.9625401161  TIP3      2892            0.0000000000
     26050      3028  TIP3      H2             11.0748317506        7.6037096037        0.6276601447  TIP3      2892            0.0000000000
     26051      3029  TIP3      OH2            18.2655600999        8.8249054804       12.4344362498  TIP3      2893            0.0000000000
     26052      3029  TIP3      H1             17.5354662499        9.4483152359       12.2447448694  TIP3      2893            0.0000000000
     26053      3029  TIP3      H2             18.9413285135        9.1860894552       11.8159131702  TIP3      2893            0.0000000000
     26054      3030  TIP3      OH2            14.4317958422        8.7849678597        5.1907445326  TIP3      2894            0.0000000000
     26055      3030  TIP3      H1             13.7397742157        9.1721086958        5.7684124708  TIP3      2894            0.0000000000
     26056      3030  TIP3      H2             15.1206641528        8.5442558218        5.8584517723  TIP3      2894            0.0000000000
     26057      3031  TIP3      OH2            14.2585344794        7.5908877936       14.4080705191  TIP3      2895            0.0000000000
     26058      3031  TIP3      H1             14.1909680538        8.5253070522       14.6400337925  TIP3      2895            0.0000000000
     26059      3031  TIP3      H2             13.5235926204        7.5531602947       13.7723381972  TIP3      2895            0.0000000000
     26060      3032  TIP3      OH2             5.4274485222        9.9680105542        7.1439223261  TIP3      2896            0.0000000000
     26061      3032  TIP3      H1              5.1265758436        9.6179503073        6.2805001091  TIP3      2896            0.0000000000
     26062      3032  TIP3      H2              6.0778438380        9.3101404710        7.4399989339  TIP3      2896            0.0000000000
     26063      3033  TIP3      OH2             7.0945510658       13.2563732057        9.8058746776  TIP3      2897            0.0000000000
     26064      3033  TIP3      H1              7.0276912045       12.8090670893        8.9535324889  TIP3      2897            0.0000000000
     26065      3033  TIP3      H2              7.8465080166       12.8189168579       10.2584844133  TIP3      2897            0.0000000000
     26066      3034  TIP3      OH2             5.9313829561        8.5649870751       10.7659174802  TIP3      2898            0.0000000000
     26067      3034  TIP3      H1              6.3357118300        8.6764993094        9.8746535482  TIP3      2898            0.0000000000
     26068      3034  TIP3      H2              6.2711386934        9.3532341054       11.2463525778  TIP3      2898            0.0000000000
     26069      3035  TIP3      OH2            12.4493002757       14.3555046561       11.4699264682  TIP3      2899            0.0000000000
     26070      3035  TIP3      H1             11.7850343331       14.8327421504       11.9930710839  TIP3      2899            0.0000000000
     26071      3035  TIP3      H2             12.3055693774       13.4350863998       11.7728653105  TIP3      2899            0.0000000000
     26072      3036  TIP3      OH2             7.1629071176       13.2955506098       15.2353780939  TIP3      2900            0.0000000000
     26073      3036  TIP3      H1              6.4482471787       13.8126423387       15.6722933564  TIP3      2900            0.0000000000
     26074      3036  TIP3      H2              6.7299058745       13.1035153611       14.3777931392  TIP3      2900            0.0000000000
     26075      3037  TIP3      OH2            12.9882369079        8.4883421844        2.9397635581  TIP3      2901            0.0000000000
     26076      3037  TIP3      H1             13.5534313766        8.5182992668        3.7525688115  TIP3      2901            0.0000000000
     26077      3037  TIP3      H2             13.5099356522        9.0399898285        2.3138678359  TIP3      2901            0.0000000000
     26078      3038  TIP3      OH2             4.1970057526        9.5363434638       13.8414592209  TIP3      2902            0.0000000000
     26079      3038  TIP3      H1              4.4107468628       10.4342219300       14.1228625680  TIP3      2902            0.0000000000
     26080      3038  TIP3      H2              3.4668270931        9.3225962474       14.4620670798  TIP3      2902            0.0000000000
     26081      3039  TIP3      OH2            11.2296448729       14.9722703836        6.7058768210  TIP3      2903            0.0000000000
     26082      3039  TIP3      H1             10.8708418745       14.7582995621        7.5688366616  TIP3      2903            0.0000000000
     26083      3039  TIP3      H2             10.4982855610       15.4478191235        6.2880720792  TIP3      2903            0.0000000000
     26084      3040  TIP3      OH2             5.3496816484       14.8456869431       16.3914654845  TIP3      2904            0.0000000000
     26085      3040  TIP3      H1              5.1503759004       15.1920575054       15.4932294883  TIP3      2904            0.0000000000
     26086      3040  TIP3      H2              4.4485293173       14.7533731493       16.7687494536  TIP3      2904            0.0000000000
     26087      3041  TIP3      OH2            16.6194428883        0.6996161646        2.9152364013  TIP3      2905            0.0000000000
     26088      3041  TIP3      H1             15.8353120522        1.2557421121        3.1175706050  TIP3      2905            0.0000000000
     26089      3041  TIP3      H2             17.2003203242        1.3542814006        2.4847801878  TIP3      2905            0.0000000000
     26090      3042  TIP3      OH2             4.2186995138        8.8005230994        4.9852004675  TIP3      2906            0.0000000000
     26091      3042  TIP3      H1              3.9068158945        9.5056955842        4.3807364677  TIP3      2906            0.0000000000
     26092      3042  TIP3      H2              3.3395705412        8.4307785189        5.2339227442  TIP3      2906            0.0000000000
     26093      3043  TIP3      OH2            17.8450426856       14.1202660565        0.9477394501  TIP3      2907            0.0000000000
     26094      3043  TIP3      H1             18.1095181049       14.8867055453        0.4164527850  TIP3      2907            0.0000000000
     26095      3043  TIP3      H2             18.7356027889       13.8149001907        1.2246995865  TIP3      2907            0.0000000000
     26096      3044  TIP3      OH2             1.3224142189       11.5887251161       14.0780745910  TIP3      2908            0.0000000000
     26097      3044  TIP3      H1              0.7364524302       11.5798378396       13.3028005166  TIP3      2908            0.0000000000
     26098      3044  TIP3      H2              1.3968408468       10.6388710568       14.2987396508  TIP3      2908            0.0000000000
     26099      3045  TIP3      OH2             0.5984774771       14.7015124052       10.3309721284  TIP3      2909            0.0000000000
     26100      3045  TIP3      H1              1.4730909881       14.7808057947       10.7492233618  TIP3      2909            0.0000000000
     26101      3045  TIP3      H2              0.0160510811       14.9366398047       11.0730818305  TIP3      2909            0.0000000000
     26102      3046  TIP3      OH2            18.3972727694       14.6972073588       15.9769112899  TIP3      2910            0.0000000000
     26103      3046  TIP3      H1             18.5385090366       13.7835613684       16.2535105107  TIP3      2910            0.0000000000
     26104      3046  TIP3      H2             17.6580113676       14.9517207614       16.5832777957  TIP3      2910            0.0000000000
     26105      3047  TIP3      OH2            10.0078990599       14.3396255765       14.9310045304  TIP3      2911            0.0000000000
     26106      3047  TIP3      H1              9.9852471200       15.0952673063       15.5454990006  TIP3      2911            0.0000000000
     26107      3047  TIP3      H2              9.0873646248       14.0079189874       14.9908635715  TIP3      2911            0.0000000000
     26108      3048  TIP3      OH2            10.2471647340       18.0389561548        4.4500111083  TIP3      2912            0.0000000000
     26109      3048  TIP3      H1             10.2610708009       18.3881224160        3.5314319100  TIP3      2912            0.0000000000
     26110      3048  TIP3      H2             10.3220798664       18.8871435350        4.9561475824  TIP3      2912            0.0000000000
     26111      3049  TIP3      OH2             4.4539526688       16.7334368949        6.7322283462  TIP3      2913            0.0000000000
     26112      3049  TIP3      H1              4.6330400178       16.4588619285        7.6631321763  TIP3      2913            0.0000000000
     26113      3049  TIP3      H2              3.8896865443       15.9788927508        6.4389657868  TIP3      2913            0.0000000000
     26114      3050  TIP3      OH2            13.3246740941       17.4738043685        1.5521513448  TIP3      2914            0.0000000000
     26115      3050  TIP3      H1             13.9394514427       16.7460591085        1.3476699044  TIP3      2914            0.0000000000
     26116      3050  TIP3      H2             13.1593112176       17.3027529637        2.5043525806  TIP3      2914            0.0000000000
     26117      3051  TIP3      OH2            12.8587719478       17.2542022707        4.2302063132  TIP3      2915            0.0000000000
     26118      3051  TIP3      H1             11.9099802317       17.3765406453        4.4591310276  TIP3      2915            0.0000000000
     26119      3051  TIP3      H2             13.1059936966       16.5205658089        4.8162441074  TIP3      2915            0.0000000000
     26120      3052  TIP3      OH2            15.7716855429        6.3786355137       16.3525079396  TIP3      2916            0.0000000000
     26121      3052  TIP3      H1             15.2902666858        7.0240179269       15.7852753799  TIP3      2916            0.0000000000
     26122      3052  TIP3      H2             15.9683625654        5.6928576046       15.6891610810  TIP3      2916            0.0000000000
     26123      3053  TIP3      OH2             3.6793767880       12.6475115677       14.7162131316  TIP3      2917            0.0000000000
     26124      3053  TIP3      H1              3.7999063966       12.1912277617       15.5844493705  TIP3      2917            0.0000000000
     26125      3053  TIP3      H2              2.7405512615       12.4008707340       14.5203215188  TIP3      2917            0.0000000000
     26126      3054  TIP3      OH2             5.9516973028        1.5952270239       10.0055401893  TIP3      2918            0.0000000000
     26127      3054  TIP3      H1              5.1322343501        1.5627366822        9.4814253893  TIP3      2918            0.0000000000
     26128      3054  TIP3      H2              5.6032787978        2.0260442439       10.8178535995  TIP3      2918            0.0000000000
     26129      3055  TIP3      OH2            10.9086807056        1.0915978056       14.2482847048  TIP3      2919            0.0000000000
     26130      3055  TIP3      H1             10.8897752930        0.3257855719       13.6600918088  TIP3      2919            0.0000000000
     26131      3055  TIP3      H2              9.9704909268        1.2989223246       14.3228860421  TIP3      2919            0.0000000000
     26132      3056  TIP3      OH2            13.3740204823        4.9942346667       14.9013599816  TIP3      2920            0.0000000000
     26133      3056  TIP3      H1             12.7020707313        4.8042081522       15.5926624126  TIP3      2920            0.0000000000
     26134      3056  TIP3      H2             13.6257449200        5.9129983491       15.0967909278  TIP3      2920            0.0000000000
     26135      3057  TIP3      OH2            14.0720903175        9.9037260620        0.9600196886  TIP3      2921            0.0000000000
     26136      3057  TIP3      H1             14.9061632581        9.7979936425        0.4484906446  TIP3      2921            0.0000000000
     26137      3057  TIP3      H2             14.1134220256       10.8515908538        1.1704341792  TIP3      2921            0.0000000000
     26138      3058  TIP3      OH2            10.1754931353        3.8319494672        1.6982548170  TIP3      2922            0.0000000000
     26139      3058  TIP3      H1             10.0129791147        3.3578969524        2.5264519808  TIP3      2922            0.0000000000
     26140      3058  TIP3      H2              9.5443082169        3.3850487744        1.1217054114  TIP3      2922            0.0000000000
     26141      3059  TIP3      OH2             5.8914895399        6.1665715914       11.7672554873  TIP3      2923            0.0000000000
     26142      3059  TIP3      H1              5.3198923226        6.2987651639       12.5616711028  TIP3      2923            0.0000000000
     26143      3059  TIP3      H2              5.9206576117        7.1049794026       11.4526923127  TIP3      2923            0.0000000000
     26144      3060  TIP3      OH2             5.9691501300        6.2409963148        6.4943967383  TIP3      2924            0.0000000000
     26145      3060  TIP3      H1              5.0101841310        6.0441220672        6.3375433514  TIP3      2924            0.0000000000
     26146      3060  TIP3      H2              6.4125209764        5.5502786850        5.9685462585  TIP3      2924            0.0000000000
     26147      3061  TIP3      OH2            11.6128474097        6.6696359890        5.2503246235  TIP3      2925            0.0000000000
     26148      3061  TIP3      H1             11.2622437247        7.5136441811        4.8717046716  TIP3      2925            0.0000000000
     26149      3061  TIP3      H2             12.2002396009        6.3636859396        4.5386188461  TIP3      2925            0.0000000000
     26150      3062  TIP3      OH2             9.8991635734        7.2193751073       17.2471036467  TIP3      2926            0.0000000000
     26151      3062  TIP3      H1              9.4701392046        6.3687535408       17.4915013195  TIP3      2926            0.0000000000
     26152      3062  TIP3      H2             10.7705203902        7.1113971208       17.6466969307  TIP3      2926            0.0000000000
     26153      3063  TIP3      OH2            12.2098676228        6.4279801975        8.5167287741  TIP3      2927            0.0000000000
     26154      3063  TIP3      H1             12.0841431925        7.3768022438        8.3447551009  TIP3      2927            0.0000000000
     26155      3063  TIP3      H2             12.4372138727        6.1275635157        7.6220871855  TIP3      2927            0.0000000000
     26156      3064  TIP3      OH2             3.5291463549        6.0591235892       13.3660867498  TIP3      2928            0.0000000000
     26157      3064  TIP3      H1              3.1651746371        6.3324886692       14.2175982068  TIP3      2928            0.0000000000
     26158      3064  TIP3      H2              3.2511679086        5.1186100386       13.3526300865  TIP3      2928            0.0000000000
     26159      3065  TIP3      OH2             7.1387535255        4.4610904585        1.2360077661  TIP3      2929            0.0000000000
     26160      3065  TIP3      H1              6.6071638255        3.7856312033        1.7075901217  TIP3      2929            0.0000000000
     26161      3065  TIP3      H2              6.5121354904        4.9192214819        0.6599825533  TIP3      2929            0.0000000000
     26162      3066  TIP3      OH2             1.8495308187        3.6818931069        7.6244498386  TIP3      2930            0.0000000000
     26163      3066  TIP3      H1              1.8019656871        3.7318836275        8.6088684615  TIP3      2930            0.0000000000
     26164      3066  TIP3      H2              1.6833396353        2.7287638532        7.5383801987  TIP3      2930            0.0000000000
     26165      3067  TIP3      OH2             1.3739750309        3.8098805792        3.5126146477  TIP3      2931            0.0000000000
     26166      3067  TIP3      H1              2.0564570398        3.7007524033        2.8245863962  TIP3      2931            0.0000000000
     26167      3067  TIP3      H2              0.8500960080        4.5107646033        3.0857146542  TIP3      2931            0.0000000000
     26168      3068  TIP3      OH2            11.6000865782        7.9157437424       12.6098138310  TIP3      2932            0.0000000000
     26169      3068  TIP3      H1             12.1016090743        7.1506961318       12.2402057483  TIP3      2932            0.0000000000
     26170      3068  TIP3      H2             10.9479589418        7.4458777803       13.1809852940  TIP3      2932            0.0000000000
     26171      3069  TIP3      OH2             8.3756044559        3.9318659877        7.8585501177  TIP3      2933            0.0000000000
     26172      3069  TIP3      H1              7.4757756046        3.6636812794        8.1236314393  TIP3      2933            0.0000000000
     26173      3069  TIP3      H2              8.9021728737        3.6135575942        8.6030680071  TIP3      2933            0.0000000000
     26174      3070  TIP3      OH2             3.4763684639        5.2832876046        5.8875667007  TIP3      2934            0.0000000000
     26175      3070  TIP3      H1              2.6656415833        5.8073735092        5.7989874395  TIP3      2934            0.0000000000
     26176      3070  TIP3      H2              3.1511004729        4.4368635512        6.2626278003  TIP3      2934            0.0000000000
     26177      3071  TIP3      OH2             7.4763276078        5.2756538657        4.0323821638  TIP3      2935            0.0000000000
     26178      3071  TIP3      H1              8.3798213880        5.2497844190        4.4367478334  TIP3      2935            0.0000000000
     26179      3071  TIP3      H2              7.6105543171        4.8204132517        3.1778888999  TIP3      2935            0.0000000000
     26180      3072  TIP3      OH2            12.8308885989        3.4260939465       11.0119769044  TIP3      2936            0.0000000000
     26181      3072  TIP3      H1             12.0723946158        3.5072405879       11.6185688997  TIP3      2936            0.0000000000
     26182      3072  TIP3      H2             12.4005286090        3.1304681599       10.1821531529  TIP3      2936            0.0000000000
     26183      3073  TIP3      OH2             5.4012071220        7.5199336801        1.2288631200  TIP3      2937            0.0000000000
     26184      3073  TIP3      H1              4.7781125826        6.9674366717        0.7265904507  TIP3      2937            0.0000000000
     26185      3073  TIP3      H2              6.2450522305        7.3828122840        0.7537188332  TIP3      2937            0.0000000000
     26186      3074  TIP3      OH2            15.7588797941       18.6397875015       17.2229093492  TIP3      2938            0.0000000000
     26187      3074  TIP3      H1             16.1844868408       19.0716568315       16.4505655946  TIP3      2938            0.0000000000
     26188      3074  TIP3      H2             16.5366467595       18.5022008135       17.7906753922  TIP3      2938            0.0000000000
     26189      3075  TIP3      OH2             3.7492737224       11.0187111732       16.8744970767  TIP3      2939            0.0000000000
     26190      3075  TIP3      H1              4.5045030221       11.2705606815       17.4420630115  TIP3      2939            0.0000000000
     26191      3075  TIP3      H2              3.0578198855       10.8632592790       17.5310794429  TIP3      2939            0.0000000000
     26192      3076  TIP3      OH2             9.5782735895        6.3545993043        9.5134230559  TIP3      2940            0.0000000000
     26193      3076  TIP3      H1             10.3349663411        5.9595105425        9.0308555176  TIP3      2940            0.0000000000
     26194      3076  TIP3      H2              9.2904095772        5.6209160129       10.0802986791  TIP3      2940            0.0000000000
     26195      3077  TIP3      OH2             4.7779182500        2.4658635018        6.0999351918  TIP3      2941            0.0000000000
     26196      3077  TIP3      H1              4.1711522316        1.8735935782        6.5834468303  TIP3      2941            0.0000000000
     26197      3077  TIP3      H2              5.5053744742        1.8369493505        5.9435098929  TIP3      2941            0.0000000000
     26198      3078  TIP3      OH2             8.1674896104        4.8299392619       11.9218646537  TIP3      2942            0.0000000000
     26199      3078  TIP3      H1              7.4105872309        5.4537683348       11.8006894524  TIP3      2942            0.0000000000
     26200      3078  TIP3      H2              8.7829228692        5.3594041370       12.4567670318  TIP3      2942            0.0000000000
     26201      3079  TIP3      OH2             8.9796053791       10.9688145653        3.9328038851  TIP3      2943            0.0000000000
     26202      3079  TIP3      H1              8.1850576477       10.6001737019        3.4935556782  TIP3      2943            0.0000000000
     26203      3079  TIP3      H2              8.5955428633       11.2366768197        4.8054042459  TIP3      2943            0.0000000000
     26204      3080  TIP3      OH2            16.2391816849       10.6402685918       12.1284048570  TIP3      2944            0.0000000000
     26205      3080  TIP3      H1             16.6513241526       11.1650865291       11.3999681898  TIP3      2944            0.0000000000
     26206      3080  TIP3      H2             15.4492992866       10.3026662945       11.6410644714  TIP3      2944            0.0000000000
     26207      3081  TIP3      OH2            12.8823238606        3.9277166059        1.2801094878  TIP3      2945            0.0000000000
     26208      3081  TIP3      H1             11.9086004914        3.9078336383        1.3580891246  TIP3      2945            0.0000000000
     26209      3081  TIP3      H2             13.1086726120        4.5761796311        1.9656127595  TIP3      2945            0.0000000000
     26210      3082  TIP3      OH2            10.3664573229       11.6103415999       15.0036959850  TIP3      2946            0.0000000000
     26211      3082  TIP3      H1              9.7650727307       11.2754885061       15.6836881243  TIP3      2946            0.0000000000
     26212      3082  TIP3      H2             10.3400736403       12.5636178671       15.1918896286  TIP3      2946            0.0000000000
     26213      3083  TIP3      OH2            13.5810119334        5.5810932900        3.4420022885  TIP3      2947            0.0000000000
     26214      3083  TIP3      H1             14.3040032422        5.6211794189        4.1078594772  TIP3      2947            0.0000000000
     26215      3083  TIP3      H2             13.8270145273        6.3388619129        2.8759358247  TIP3      2947            0.0000000000
     26216      3084  TIP3      OH2             4.3813205587       10.5666743988        9.6611665678  TIP3      2948            0.0000000000
     26217      3084  TIP3      H1              4.4918624008       10.4734847412        8.6957491671  TIP3      2948            0.0000000000
     26218      3084  TIP3      H2              4.6196095664        9.6706608562        9.9624290799  TIP3      2948            0.0000000000
     26219      3085  TIP3      OH2            11.1045898585       12.3091444171        2.9315410325  TIP3      2949            0.0000000000
     26220      3085  TIP3      H1             10.6335498820       13.1558813392        3.0978370192  TIP3      2949            0.0000000000
     26221      3085  TIP3      H2             10.4021860790       11.6717717100        3.1942134538  TIP3      2949            0.0000000000
     26222      3086  TIP3      OH2             1.4324418585        8.9774662638       14.6392332238  TIP3      2950            0.0000000000
     26223      3086  TIP3      H1              1.2970764742        8.6293553295       15.5365289287  TIP3      2950            0.0000000000
     26224      3086  TIP3      H2              0.5516652488        8.7791212181       14.2582307521  TIP3      2950            0.0000000000
     26225      3087  TIP3      OH2             7.6106148811        8.6462356087       16.7196594983  TIP3      2951            0.0000000000
     26226      3087  TIP3      H1              7.4320142639        7.9792870278       16.0414765662  TIP3      2951            0.0000000000
     26227      3087  TIP3      H2              8.5109690091        8.3729207825       16.9682392655  TIP3      2951            0.0000000000
     26228      3088  TIP3      OH2            12.9001652587       13.8911070932       14.8653145589  TIP3      2952            0.0000000000
     26229      3088  TIP3      H1             11.9591950019       14.0596587284       14.6684092189  TIP3      2952            0.0000000000
     26230      3088  TIP3      H2             12.8844347670       14.2130758267       15.7900110648  TIP3      2952            0.0000000000
     26231      3089  TIP3      OH2            17.9356101254        6.2866180328        3.4981732880  TIP3      2953            0.0000000000
     26232      3089  TIP3      H1             17.7687771116        5.8238176164        2.6621445215  TIP3      2953            0.0000000000
     26233      3089  TIP3      H2             18.0394083382        7.2182902832        3.1633586826  TIP3      2953            0.0000000000
     26234      3090  TIP3      OH2            18.3657887331       11.8107878231       16.1963144223  TIP3      2954            0.0000000000
     26235      3090  TIP3      H1             17.4400719697       12.0517128617       15.9981671046  TIP3      2954            0.0000000000
     26236      3090  TIP3      H2             18.8519597902       11.8418796389       15.3442009288  TIP3      2954            0.0000000000
     26237      3091  TIP3      OH2            16.5012966956       14.8408686487        3.3246775095  TIP3      2955            0.0000000000
     26238      3091  TIP3      H1             16.5136108357       13.9304095617        3.6547759398  TIP3      2955            0.0000000000
     26239      3091  TIP3      H2             16.9818876269       14.7694499896        2.4764151697  TIP3      2955            0.0000000000
     26240      3092  TIP3      OH2            14.0941520424        9.6063853601       10.7332027413  TIP3      2956            0.0000000000
     26241      3092  TIP3      H1             13.1301590044        9.5323549570       10.7016532014  TIP3      2956            0.0000000000
     26242      3092  TIP3      H2             14.3387347084        8.8514497580       10.1485593136  TIP3      2956            0.0000000000
     26243      3093  TIP3      OH2             6.4017860566       13.9889447238        6.7576416797  TIP3      2957            0.0000000000
     26244      3093  TIP3      H1              6.5582793235       14.9361194418        6.5931716728  TIP3      2957            0.0000000000
     26245      3093  TIP3      H2              5.4905929302       13.9055666389        6.4548101343  TIP3      2957            0.0000000000
     26246      3094  TIP3      OH2             0.9904786727        9.0978327258        1.3489462546  TIP3      2958            0.0000000000
     26247      3094  TIP3      H1              1.9270232985        9.2903821615        1.5219587817  TIP3      2958            0.0000000000
     26248      3094  TIP3      H2              0.5746383838        9.7303097754        1.9616008137  TIP3      2958            0.0000000000
     26249      3095  TIP3      OH2             7.8204521905       11.7891553192        6.2305798910  TIP3      2959            0.0000000000
     26250      3095  TIP3      H1              7.3873397633       12.6639308940        6.3689088826  TIP3      2959            0.0000000000
     26251      3095  TIP3      H2              7.6682102606       11.3585193745        7.0767801477  TIP3      2959            0.0000000000
     26252      3096  TIP3      OH2             8.1927897856       16.0099471763       13.2231785229  TIP3      2960            0.0000000000
     26253      3096  TIP3      H1              8.7109977476       16.7186893983       12.8011299555  TIP3      2960            0.0000000000
     26254      3096  TIP3      H2              8.8486915031       15.6377586371       13.8431675048  TIP3      2960            0.0000000000
     26255      3097  TIP3      OH2             6.9886392424       16.6256843386        5.9701492738  TIP3      2961            0.0000000000
     26256      3097  TIP3      H1              6.0123890670       16.6834332631        6.0784732375  TIP3      2961            0.0000000000
     26257      3097  TIP3      H2              7.2326961213       17.4471179699        6.4350742608  TIP3      2961            0.0000000000
     26258      3098  TIP3      OH2            11.4959842735       11.7931367179       12.2818383951  TIP3      2962            0.0000000000
     26259      3098  TIP3      H1             11.2641648231       11.7134178226       13.2363623485  TIP3      2962            0.0000000000
     26260      3098  TIP3      H2             11.7668208021       10.8808390857       12.0532369238  TIP3      2962            0.0000000000
     26261      3099  TIP3      OH2            13.9739951178       13.0186111875        1.8085929420  TIP3      2963            0.0000000000
     26262      3099  TIP3      H1             14.3385661156       12.6417334039        2.6354332029  TIP3      2963            0.0000000000
     26263      3099  TIP3      H2             13.0485085088       12.7284317723        1.9078161675  TIP3      2963            0.0000000000
     26264      3100  TIP3      OH2            14.4453217145       16.2901770910       14.7887620035  TIP3      2964            0.0000000000
     26265      3100  TIP3      H1             13.6307420264       15.7531538731       14.8285340228  TIP3      2964            0.0000000000
     26266      3100  TIP3      H2             14.1207548836       17.1988657155       14.7599909282  TIP3      2964            0.0000000000
     26267      3101  TIP3      OH2            18.3903986814       17.2900803442        1.9001762629  TIP3      2965            0.0000000000
     26268      3101  TIP3      H1             18.8686656349       17.9138019984        1.3342894646  TIP3      2965            0.0000000000
     26269      3101  TIP3      H2             17.7116803876       17.8831697024        2.2968672564  TIP3      2965            0.0000000000
     26270      3102  TIP3      OH2             2.6414623635        3.6265981699       13.9895346297  TIP3      2966            0.0000000000
     26271      3102  TIP3      H1              2.1694006314        4.1599632258       14.6787279213  TIP3      2966            0.0000000000
     26272      3102  TIP3      H2              2.1311079991        2.8092687850       14.0284201421  TIP3      2966            0.0000000000
     26273      3103  TIP3      OH2            15.0542835686       11.3857549629        3.7588509846  TIP3      2967            0.0000000000
     26274      3103  TIP3      H1             14.8654702495       10.5501324487        4.2346252127  TIP3      2967            0.0000000000
     26275      3103  TIP3      H2             16.0424936603       11.3672620562        3.6790826815  TIP3      2967            0.0000000000
     26276      3104  TIP3      OH2             2.2277795745       15.1544772056       12.7659268781  TIP3      2968            0.0000000000
     26277      3104  TIP3      H1              3.0349813275       14.6251768405       12.8898337820  TIP3      2968            0.0000000000
     26278      3104  TIP3      H2              2.4142589059       15.9465137961       13.2889598162  TIP3      2968            0.0000000000
     26279      3105  TIP3      OH2             7.0994194131       13.4755319365        2.5715803912  TIP3      2969            0.0000000000
     26280      3105  TIP3      H1              7.8133185842       12.9833334815        3.0027667514  TIP3      2969            0.0000000000
     26281      3105  TIP3      H2              7.2627373509       14.3799396637        2.9152054369  TIP3      2969            0.0000000000
     26282      3106  TIP3      OH2             3.0914284834       10.5182161366        2.9812236535  TIP3      2970            0.0000000000
     26283      3106  TIP3      H1              2.4114617674       10.9381343153        3.5693302748  TIP3      2970            0.0000000000
     26284      3106  TIP3      H2              3.6484133194       11.2787188045        2.7544438763  TIP3      2970            0.0000000000
     26285      3107  TIP3      OH2            11.2228113206        3.7999333953       13.6020824573  TIP3      2971            0.0000000000
     26286      3107  TIP3      H1             12.0438669056        4.0538191488       14.0717086386  TIP3      2971            0.0000000000
     26287      3107  TIP3      H2             11.1607018367        2.8632916342       13.8650258186  TIP3      2971            0.0000000000
     26288      3108  TIP3      OH2            12.1378236168        3.1806110694        4.6493695108  TIP3      2972            0.0000000000
     26289      3108  TIP3      H1             12.1131120219        3.9154057703        4.0189970217  TIP3      2972            0.0000000000
     26290      3108  TIP3      H2             12.5265350160        3.6333699992        5.4337050220  TIP3      2972            0.0000000000
     26291      3109  TIP3      OH2            10.1134801256       14.7386671471        3.7158716424  TIP3      2973            0.0000000000
     26292      3109  TIP3      H1              9.3139138251       15.3104620675        3.7155999008  TIP3      2973            0.0000000000
     26293      3109  TIP3      H2             10.6456574055       15.1665762067        3.0191193069  TIP3      2973            0.0000000000
     26294      3110  TIP3      OH2             9.5613149432        4.9876904312        5.6270890703  TIP3      2974            0.0000000000
     26295      3110  TIP3      H1             10.2270732977        5.7053982159        5.7512221326  TIP3      2974            0.0000000000
     26296      3110  TIP3      H2              9.1905246481        4.8114402522        6.5222313930  TIP3      2974            0.0000000000
     26297      3111  TIP3      OH2            10.2755525681        6.2372512782       14.1916063949  TIP3      2975            0.0000000000
     26298      3111  TIP3      H1             10.1219450266        6.3098693699       15.1461891435  TIP3      2975            0.0000000000
     26299      3111  TIP3      H2             10.5734118784        5.3068859997       14.0627868152  TIP3      2975            0.0000000000
     26300      3112  TIP3      OH2            10.4435282021        1.5547173997        6.0115937331  TIP3      2976            0.0000000000
     26301      3112  TIP3      H1             10.1784205493        2.1483859450        6.7323865375  TIP3      2976            0.0000000000
     26302      3112  TIP3      H2             11.1307870543        2.1032818605        5.5629399682  TIP3      2976            0.0000000000
     26303      3113  TIP3      OH2             7.7639376647       16.0460335307        3.3943721940  TIP3      2977            0.0000000000
     26304      3113  TIP3      H1              7.8124731174       16.8398797284        2.8431755569  TIP3      2977            0.0000000000
     26305      3113  TIP3      H2              7.3735295249       16.4206250078        4.2175929015  TIP3      2977            0.0000000000
     26306      3114  TIP3      OH2             5.9619328651        2.7162643521        3.0172312757  TIP3      2978            0.0000000000
     26307      3114  TIP3      H1              5.5413364380        3.2202999020        3.7314249899  TIP3      2978            0.0000000000
     26308      3114  TIP3      H2              6.7630015193        2.3945956629        3.4885306793  TIP3      2978            0.0000000000
     26309      3115  TIP3      OH2            15.9024789006        3.8759251750       15.0213317454  TIP3      2979            0.0000000000
     26310      3115  TIP3      H1             14.9813240477        4.1668454608       15.2110524130  TIP3      2979            0.0000000000
     26311      3115  TIP3      H2             15.7061768049        3.3960546967       14.1723866337  TIP3      2979            0.0000000000
     26312      3116  TIP3      OH2            14.6862173694        7.4939196916        8.9948008476  TIP3      2980            0.0000000000
     26313      3116  TIP3      H1             14.1448092497        6.6935811950        8.8920496271  TIP3      2980            0.0000000000
     26314      3116  TIP3      H2             15.4513159231        7.1264943058        9.5009235680  TIP3      2980            0.0000000000
     26315      3117  TIP3      OH2             4.1536296670       13.6275606181        1.6087304630  TIP3      2981            0.0000000000
     26316      3117  TIP3      H1              4.9173938375       13.8250394655        2.1829868366  TIP3      2981            0.0000000000
     26317      3117  TIP3      H2              4.4870315452       12.8592579944        1.1234185155  TIP3      2981            0.0000000000
     26318      3118  TIP3      OH2             2.2027988853        6.3368143351        1.5600484356  TIP3      2982            0.0000000000
     26319      3118  TIP3      H1              1.8049511034        7.1774435877        1.2978667402  TIP3      2982            0.0000000000
     26320      3118  TIP3      H2              1.9082132957        5.6827079123        0.8973079534  TIP3      2982            0.0000000000
     26321      3119  TIP3      OH2            16.1471481606       17.7196781612       11.3059408046  TIP3      2983            0.0000000000
     26322      3119  TIP3      H1             16.0643904387       18.2171140666       10.4564484099  TIP3      2983            0.0000000000
     26323      3119  TIP3      H2             17.1094890956       17.5381878397       11.2471316696  TIP3      2983            0.0000000000
     26324      3120  TIP3      OH2             3.2584580193        1.1013166603        9.4028379406  TIP3      2984            0.0000000000
     26325      3120  TIP3      H1              3.2253584704        0.7463007191        8.4952009985  TIP3      2984            0.0000000000
     26326      3120  TIP3      H2              3.0797633581        0.2824832934        9.9302035259  TIP3      2984            0.0000000000
     26327      3121  TIP3      OH2             2.5604593773       14.9492137311        6.1585742703  TIP3      2985            0.0000000000
     26328      3121  TIP3      H1              1.8913000946       15.4455296925        6.6627704896  TIP3      2985            0.0000000000
     26329      3121  TIP3      H2              2.2695147483       15.1252960572        5.2442452735  TIP3      2985            0.0000000000
     26330      3122  TIP3      OH2             0.8910849915       17.1625609895       16.8451998132  TIP3      2986            0.0000000000
     26331      3122  TIP3      H1              1.4047746248       17.3424842262       17.6510616939  TIP3      2986            0.0000000000
     26332      3122  TIP3      H2              0.8439513587       16.1935118743       16.8679700127  TIP3      2986            0.0000000000
     26333      3123  TIP3      OH2             6.1456565073       16.6571559415       18.4127908739  TIP3      2987            0.0000000000
     26334      3123  TIP3      H1              6.9922310189       16.3071194603       18.7299283250  TIP3      2987            0.0000000000
     26335      3123  TIP3      H2              5.9420019512       16.0621036380       17.6660099549  TIP3      2987            0.0000000000
     26336      3124  TIP3      OH2            10.9996881175       15.8644070024        1.1154895634  TIP3      2988            0.0000000000
     26337      3124  TIP3      H1             10.3475740246       15.4099394654        0.5442991120  TIP3      2988            0.0000000000
     26338      3124  TIP3      H2             11.6224828025       16.2142897490        0.4538397004  TIP3      2988            0.0000000000
     26339      3125  TIP3      OH2            12.5152909927       15.0844438019       17.2661947765  TIP3      2989            0.0000000000
     26340      3125  TIP3      H1             12.0825454552       14.3093817235       17.7048902136  TIP3      2989            0.0000000000
     26341      3125  TIP3      H2             13.2562242836       15.2196775838       17.8960330051  TIP3      2989            0.0000000000
     26342      3126  TIP3      OH2            15.1489857281       15.4123923373        0.3090222806  TIP3      2990            0.0000000000
     26343      3126  TIP3      H1             14.6119531459       14.7487180341        0.7905331679  TIP3      2990            0.0000000000
     26344      3126  TIP3      H2             16.0272292631       15.0266003121        0.5003057213  TIP3      2990            0.0000000000
     26345      3127  TIP3      OH2             1.1742258457       10.8183288291       18.3975172217  TIP3      2991            0.0000000000
     26346      3127  TIP3      H1              1.1965575398       10.0063254791       17.8560410172  TIP3      2991            0.0000000000
     26347      3127  TIP3      H2              0.2656561597       11.1305598161       18.1889041200  TIP3      2991            0.0000000000
     26348      3128  TIP3      OH2             5.6861045682       11.1354948407        0.6549049138  TIP3      2992            0.0000000000
     26349      3128  TIP3      H1              6.4704889953       11.4156557776        1.1454822117  TIP3      2992            0.0000000000
     26350      3128  TIP3      H2              5.9482512398       11.4117401427       -0.2511924750  TIP3      2992            0.0000000000
     26351      3129  TIP3      OH2             7.9010121760       11.2745520937       16.8956273946  TIP3      2993            0.0000000000
     26352      3129  TIP3      H1              7.5905535082       11.9243664358       16.2286370058  TIP3      2993            0.0000000000
     26353      3129  TIP3      H2              7.6322810319       10.3875032874       16.5570669098  TIP3      2993            0.0000000000
     26354      3130  TIP3      OH2            13.6845782759       11.1517187006       14.8722267022  TIP3      2994            0.0000000000
     26355      3130  TIP3      H1             14.5697939504       11.5615113790       14.8913682617  TIP3      2994            0.0000000000
     26356      3130  TIP3      H2             13.1398707353       11.9655740764       14.9101309750  TIP3      2994            0.0000000000
     26357      3131  TIP3      OH2             2.3109345824        8.4005153519       17.4007175353  TIP3      2995            0.0000000000
     26358      3131  TIP3      H1              3.0510100269        7.9573100061       16.9605189803  TIP3      2995            0.0000000000
     26359      3131  TIP3      H2              2.6980232071        8.5736495288       18.2818701811  TIP3      2995            0.0000000000
     26360      3132  TIP3      OH2             7.0879761445        9.4465546297        2.4672672719  TIP3      2996            0.0000000000
     26361      3132  TIP3      H1              6.3625898026        9.6149867774        1.8334842837  TIP3      2996            0.0000000000
     26362      3132  TIP3      H2              7.6031559148        8.8096257847        1.9251058296  TIP3      2996            0.0000000000
     26363      3133  TIP3      OH2             6.2345827380        7.4960032307       14.3322157042  TIP3      2997            0.0000000000
     26364      3133  TIP3      H1              5.4412491318        8.0583353228       14.3494312886  TIP3      2997            0.0000000000
     26365      3133  TIP3      H2              6.8742720902        8.0934869860       13.9057911364  TIP3      2997            0.0000000000
     26366      3134  TIP3      OH2             8.1132032824        7.8388399256        0.5111431581  TIP3      2998            0.0000000000
     26367      3134  TIP3      H1              8.3692351099        7.8619524598       -0.4253915144  TIP3      2998            0.0000000000
     26368      3134  TIP3      H2              9.0126671382        7.8057286680        0.9363640678  TIP3      2998            0.0000000000
     26369      3135  TIP3      OH2            11.5230149420       10.3272431546       18.1022975259  TIP3      2999            0.0000000000
     26370      3135  TIP3      H1             12.0081063669        9.7724159298       17.4708674185  TIP3      2999            0.0000000000
     26371      3135  TIP3      H2             10.7494147740        9.7860574958       18.3226065737  TIP3      2999            0.0000000000
     26372      3136  TIP3      OH2            16.7574688882        9.9017619749       84.8661926300  TIP3      3000            0.0000000000
     26373      3136  TIP3      H1             17.2144409291        9.5148906251       84.1050718654  TIP3      3000            0.0000000000
     26374      3136  TIP3      H2             17.4707982913       10.4974567774       85.1804653509  TIP3      3000            0.0000000000
     26375      3137  TIP3      OH2             6.8549245025        5.2788174748       15.6960005727  TIP3      3001            0.0000000000
     26376      3137  TIP3      H1              6.7680211231        4.5718637827       15.0202898284  TIP3      3001            0.0000000000
     26377      3137  TIP3      H2              6.7175489558        6.0858555997       15.1364890964  TIP3      3001            0.0000000000
     26378      3138  TIP3      OH2             6.8929903875        3.4246215627       13.7074075376  TIP3      3002            0.0000000000
     26379      3138  TIP3      H1              7.5295475556        3.8259454393       13.0711289528  TIP3      3002            0.0000000000
     26380      3138  TIP3      H2              6.1321644440        3.2796220259       13.1105702755  TIP3      3002            0.0000000000
     26381      3139  TIP3      OH2             8.5072967791        9.2074387223       13.7972307862  TIP3      3003            0.0000000000
     26382      3139  TIP3      H1              9.3855932057        9.4939727781       13.5108625940  TIP3      3003            0.0000000000
     26383      3139  TIP3      H2              7.9236592160        9.6961461747       13.1775260406  TIP3      3003            0.0000000000
     26384      3140  TIP3      OH2            12.8773691877        6.2370939854       18.8778720874  TIP3      3004            0.0000000000
     26385      3140  TIP3      H1             12.9037320508        5.4249488606       18.3493557004  TIP3      3004            0.0000000000
     26386      3140  TIP3      H2             13.6081172791        6.7432513427       18.4849708378  TIP3      3004            0.0000000000
     26387      3141  TIP3      OH2            14.4471968638        9.5289229228       16.9855195844  TIP3      3005            0.0000000000
     26388      3141  TIP3      H1             14.1012340200        9.9940776222       16.1998647493  TIP3      3005            0.0000000000
     26389      3141  TIP3      H2             15.3825300963        9.3967613550       16.7320949609  TIP3      3005            0.0000000000
     26390      3142  TIP3      OH2             4.7143249836        6.1366459434       17.3005835761  TIP3      3006            0.0000000000
     26391      3142  TIP3      H1              4.1555729334        5.3765670963       17.5791145321  TIP3      3006            0.0000000000
     26392      3142  TIP3      H2              5.3615794979        5.7010697623       16.7155905257  TIP3      3006            0.0000000000
     26393      3143  TIP3      OH2             7.6326005728        0.8370019191       13.9121366636  TIP3      3007            0.0000000000
     26394      3143  TIP3      H1              7.4145250939        1.7993092723       13.9873213258  TIP3      3007            0.0000000000
     26395      3143  TIP3      H2              6.9650511198        0.5563763140       13.2673226201  TIP3      3007            0.0000000000
     26396      3144  TIP3      OH2             8.5439409446        5.0482378994       18.0147794090  TIP3      3008            0.0000000000
     26397      3144  TIP3      H1              7.8603614372        4.8342927624       18.6836025744  TIP3      3008            0.0000000000
     26398      3144  TIP3      H2              8.0817986174        4.7727066037       17.1972628427  TIP3      3008            0.0000000000
     26399      3145  TIP3      OH2            11.5971556113        4.3307973312       16.8153974642  TIP3      3009            0.0000000000
     26400      3145  TIP3      H1             10.7427477484        3.8896348878       16.9069570699  TIP3      3009            0.0000000000
     26401      3145  TIP3      H2             12.1903855849        3.7130466493       17.3035974233  TIP3      3009            0.0000000000
     26402      3146  TIP3      OH2            13.2487256725        2.8642652913       18.2969910949  TIP3      3010            0.0000000000
     26403      3146  TIP3      H1             13.2020010841        1.8810611811       18.2316446453  TIP3      3010            0.0000000000
     26404      3146  TIP3      H2             12.9910495567        3.0078204881       19.2299609573  TIP3      3010            0.0000000000
     26405      3147  TIP3      OH2             3.1801800456        3.9262882313       17.6658733192  TIP3      3011            0.0000000000
     26406      3147  TIP3      H1              3.1432426174        3.1015775206       17.1301978229  TIP3      3011            0.0000000000
     26407      3147  TIP3      H2              3.0286386962        3.5455211673       18.5550385056  TIP3      3011            0.0000000000
     26408      3148  TIP3      OH2             8.3635828998        1.2970203361       16.7699610761  TIP3      3012            0.0000000000
     26409      3148  TIP3      H1              8.8503795103        0.5337786543       17.1261477405  TIP3      3012            0.0000000000
     26410      3148  TIP3      H2              7.9026137735        0.8738946955       16.0260840722  TIP3      3012            0.0000000000
     26411      3149  TIP3      OH2             7.4003493728        1.8372661129       19.4479248378  TIP3      3013            0.0000000000
     26412      3149  TIP3      H1              7.7080908115        1.6329812345       18.5464922000  TIP3      3013            0.0000000000
     26413      3149  TIP3      H2              7.0595640858        2.7469456859       19.3432874342  TIP3      3013            0.0000000000
     26414      3150  TIP3      OH2             7.6085568026       18.5379434319        1.4678797207  TIP3      3014            0.0000000000
     26415      3150  TIP3      H1              8.4917809965       18.8152851658        1.7476748161  TIP3      3014            0.0000000000
     26416      3150  TIP3      H2              7.7596236289       18.3320719752        0.5309994515  TIP3      3014            0.0000000000
     26417      3151  TIP3      OH2             1.0828734993       13.2933902229        1.2536312724  TIP3      3015            0.0000000000
     26418      3151  TIP3      H1              2.0029461163       13.5770612949        1.3849753832  TIP3      3015            0.0000000000
     26419      3151  TIP3      H2              1.0209807412       13.0436000391        0.3198337069  TIP3      3015            0.0000000000
     26420      3152  TIP3      OH2            66.3843782315       18.1868130237        5.8877676102  TIP3      3016            0.0000000000
     26421      3152  TIP3      H1             65.4996951413       17.8160621274        5.9695321214  TIP3      3016            0.0000000000
     26422      3152  TIP3      H2             66.8065062880       17.8393763953        6.6975523398  TIP3      3016            0.0000000000
     26423      3153  TIP3      OH2             1.1798057836       16.5767499250        7.9753680090  TIP3      3017            0.0000000000
     26424      3153  TIP3      H1              0.6651562475       15.9344477250        8.5059532502  TIP3      3017            0.0000000000
     26425      3153  TIP3      H2              1.7337451310       16.9569590119        8.6934556565  TIP3      3017            0.0000000000
     26426      3154  TIP3      OH2            18.8191575415       17.8319520980       10.8815651331  TIP3      3018            0.0000000000
     26427      3154  TIP3      H1             19.2398783820       17.3622412338       11.6121666640  TIP3      3018            0.0000000000
     26428      3154  TIP3      H2             19.2778958252       18.6876954229       10.8975132549  TIP3      3018            0.0000000000
     26429      3155  TIP3      OH2            17.7699831209       16.8043870508       13.9130971014  TIP3      3019            0.0000000000
     26430      3155  TIP3      H1             17.4905731387       16.1467442540       13.2353366123  TIP3      3019            0.0000000000
     26431      3155  TIP3      H2             18.2415849728       16.2059965597       14.5240513082  TIP3      3019            0.0000000000
     26432      3156  TIP3      OH2            16.9841825979       12.9206214869       19.0733645245  TIP3      3020            0.0000000000
     26433      3156  TIP3      H1             16.0121567873       12.8917652562       19.1776661696  TIP3      3020            0.0000000000
     26434      3156  TIP3      H2             17.2109783171       13.1907292758       19.9843469867  TIP3      3020            0.0000000000
     26435      3157  TIP3      OH2            17.8112938194       11.1596102748        3.7876391960  TIP3      3021            0.0000000000
     26436      3157  TIP3      H1             18.6856822472       11.6028428603        3.8777016798  TIP3      3021            0.0000000000
     26437      3157  TIP3      H2             17.8506497770       10.4969341250        4.5001199370  TIP3      3021            0.0000000000
     26438      3158  TIP3      OH2            18.3791051096        8.8763701700        5.5459426079  TIP3      3022            0.0000000000
     26439      3158  TIP3      H1             17.6211892821        8.4655040911        6.0291505355  TIP3      3022            0.0000000000
     26440      3158  TIP3      H2             18.9007996651        9.2529679273        6.2766983526  TIP3      3022            0.0000000000
     26441      3159  TIP3      OH2            17.8822079321       12.0006833480       10.6432671540  TIP3      3023            0.0000000000
     26442      3159  TIP3      H1             18.5750721547       11.3360736777       10.4504207069  TIP3      3023            0.0000000000
     26443      3159  TIP3      H2             18.2924507043       12.8331044293       10.3340330216  TIP3      3023            0.0000000000
     26444      3160  TIP3      OH2            16.7516302262       14.5554927315       12.9360005417  TIP3      3024            0.0000000000
     26445      3160  TIP3      H1             16.6353870865       14.3120980014       13.8707055115  TIP3      3024            0.0000000000
     26446      3160  TIP3      H2             16.7122757406       13.6858738528       12.5109128660  TIP3      3024            0.0000000000
     26447      3161  TIP3      OH2            17.8933360248        8.5827469161        2.2562330974  TIP3      3025            0.0000000000
     26448      3161  TIP3      H1             17.3559836631        8.9342763819        1.5273998075  TIP3      3025            0.0000000000
     26449      3161  TIP3      H2             18.1265717060        9.3817528515        2.7651342900  TIP3      3025            0.0000000000
     26450      3162  TIP3      OH2            15.8197190399        6.3306231208        0.9925776732  TIP3      3026            0.0000000000
     26451      3162  TIP3      H1             16.6727232466        6.6448178795        0.6315533728  TIP3      3026            0.0000000000
     26452      3162  TIP3      H2             15.8818901323        5.3626969704        0.8267831417  TIP3      3026            0.0000000000
     26453      3163  TIP3      OH2            16.3232180066        7.8475644204        6.8356936515  TIP3      3027            0.0000000000
     26454      3163  TIP3      H1             16.0339824400        6.9707245142        6.5194231280  TIP3      3027            0.0000000000
     26455      3163  TIP3      H2             15.9215500559        7.8808122375        7.7235684776  TIP3      3027            0.0000000000
     26456      3164  TIP3      OH2             0.9842119825        9.5668279783       11.1233766366  TIP3      3028            0.0000000000
     26457      3164  TIP3      H1              0.8956219101        9.4743550932       10.1433299371  TIP3      3028            0.0000000000
     26458      3164  TIP3      H2              1.8745381334        9.1440854279       11.2085391309  TIP3      3028            0.0000000000
     26459      3165  TIP3      OH2            17.1010121121        9.5024825939       16.1474796118  TIP3      3029            0.0000000000
     26460      3165  TIP3      H1             17.5153415378        8.6261652722       16.3110291755  TIP3      3029            0.0000000000
     26461      3165  TIP3      H2             17.8855680577       10.0817891582       16.1250022660  TIP3      3029            0.0000000000
     26462      3166  TIP3      OH2            18.3024627664        7.0591586933       16.4712470387  TIP3      3030            0.0000000000
     26463      3166  TIP3      H1             17.4084011179        6.6845295338       16.6567620411  TIP3      3030            0.0000000000
     26464      3166  TIP3      H2             18.8453107637        6.2526568231       16.6142587135  TIP3      3030            0.0000000000
     26465      3167  TIP3      OH2            15.9646110650        3.7418294856        0.0470056658  TIP3      3031            0.0000000000
     26466      3167  TIP3      H1             16.5351565065        3.0111949900        0.3687215600  TIP3      3031            0.0000000000
     26467      3167  TIP3      H2             15.0704761817        3.3626960024        0.1420589254  TIP3      3031            0.0000000000
     26468      3168  TIP3      OH2            15.5783741514        5.7203459028        5.2423439261  TIP3      3032            0.0000000000
     26469      3168  TIP3      H1             15.9484262447        4.8051560935        5.3639439649  TIP3      3032            0.0000000000
     26470      3168  TIP3      H2             16.2812707754        6.0968059355        4.6759891680  TIP3      3032            0.0000000000
     26471      3169  TIP3      OH2            16.6228136204        6.2210017487       10.3007454155  TIP3      3033            0.0000000000
     26472      3169  TIP3      H1             17.6087961174        6.1276735449       10.3310934502  TIP3      3033            0.0000000000
     26473      3169  TIP3      H2             16.4620621424        6.1720334168       11.2652971691  TIP3      3033            0.0000000000
     26474      3170  TIP3      OH2            16.4902657696        6.6328380637       12.9336270022  TIP3      3034            0.0000000000
     26475      3170  TIP3      H1             15.6321333139        6.8821259421       13.3202499940  TIP3      3034            0.0000000000
     26476      3170  TIP3      H2             16.9418342578        7.5002436299       12.8449581855  TIP3      3034            0.0000000000
     26477      3171  TIP3      OH2             1.3375602840        4.8850413871       16.0400628010  TIP3      3035            0.0000000000
     26478      3171  TIP3      H1              1.9734533892        4.6284461197       16.7415709892  TIP3      3035            0.0000000000
     26479      3171  TIP3      H2              0.4745458309        4.6731023317       16.4556411861  TIP3      3035            0.0000000000
     26480      3172  TIP3      OH2            18.9306684577        0.9430274737       18.5580832176  TIP3      3036            0.0000000000
     26481      3172  TIP3      H1             19.2137138174        0.1486572435       18.0755832187  TIP3      3036            0.0000000000
     26482      3172  TIP3      H2             18.4366613807        1.4608158288       17.9006159702  TIP3      3036            0.0000000000
     26483      3173  TIP3      OH2            16.3445823279        3.1216469286        5.2326006199  TIP3      3037            0.0000000000
     26484      3173  TIP3      H1             16.6109538667        2.5023529624        5.9549592591  TIP3      3037            0.0000000000
     26485      3173  TIP3      H2             15.6571753209        2.5819935308        4.7845020410  TIP3      3037            0.0000000000
     26486      3174  TIP3      OH2             1.9901480552        3.2392912161       10.3067000239  TIP3      3038            0.0000000000
     26487      3174  TIP3      H1              2.3890333476        2.3459784290       10.2859309143  TIP3      3038            0.0000000000
     26488      3174  TIP3      H2              2.7886490205        3.7924977123       10.4619817712  TIP3      3038            0.0000000000
     26489      3175  TIP3      OH2             0.3054105793        6.4462749217       10.8357293218  TIP3      3039            0.0000000000
     26490      3175  TIP3      H1              1.1247289249        5.9364269087       10.7454448302  TIP3      3039            0.0000000000
     26491      3175  TIP3      H2              0.6345204574        7.3234245374       11.0838509635  TIP3      3039            0.0000000000
     26492      3176  TIP3      OH2            17.2530238645        2.5897348981       16.9999267101  TIP3      3040            0.0000000000
     26493      3176  TIP3      H1             16.7540076757        2.9042780122       17.7695654049  TIP3      3040            0.0000000000
     26494      3176  TIP3      H2             16.6581664606        2.8837137142       16.2807029367  TIP3      3040            0.0000000000
     26495      3177  TIP3      OH2            18.1784219255        2.3909595641        1.3457545246  TIP3      3041            0.0000000000
     26496      3177  TIP3      H1             18.6637686285        1.6605991860        0.9518703807  TIP3      3041            0.0000000000
     26497      3177  TIP3      H2             18.8695893382        3.0836222450        1.4110830747  TIP3      3041            0.0000000000
     26498      3178  TIP3      OH2             0.7275253227        1.8894759278        5.3175082298  TIP3      3042            0.0000000000
     26499      3178  TIP3      H1              0.2458620548        2.3267214161        6.0373783714  TIP3      3042            0.0000000000
     26500      3178  TIP3      H2              1.1673757710        2.6285498442        4.8337293080  TIP3      3042            0.0000000000
     26501      3179  TIP3      OH2            15.3339581829       17.3532065399        7.1456978581  TIP3      3043            0.0000000000
     26502      3179  TIP3      H1             16.0640763600       17.1552298076        6.5159874608  TIP3      3043            0.0000000000
     26503      3179  TIP3      H2             15.7165228689       18.0354274320        7.7328437606  TIP3      3043            0.0000000000
     26504      3180  TIP3      OH2             0.4365477894        1.0549612430       12.8486528926  TIP3      3044            0.0000000000
     26505      3180  TIP3      H1              0.1125357220        1.4692663842       13.6532116985  TIP3      3044            0.0000000000
     26506      3180  TIP3      H2              0.1363795924        1.6491306878       12.1436805656  TIP3      3044            0.0000000000
     26507      3181  TIP3      OH2             2.6812760011       14.2045099374       17.2973065176  TIP3      3045            0.0000000000
     26508      3181  TIP3      H1              2.2216447052       13.7509263552       16.5726846308  TIP3      3045            0.0000000000
     26509      3181  TIP3      H2              2.1862957374       13.9251881034       18.0872935325  TIP3      3045            0.0000000000
     26510      3182  TIP3      OH2             5.4971458140       15.8891435310       13.8405588949  TIP3      3046            0.0000000000
     26511      3182  TIP3      H1              5.3883844090       16.7929353551       13.4552531476  TIP3      3046            0.0000000000
     26512      3182  TIP3      H2              6.4726161651       15.8149180534       13.7559050503  TIP3      3046            0.0000000000
     26513      3183  TIP3      OH2             9.6903211421       16.9120568611       16.2804143703  TIP3      3047            0.0000000000
     26514      3183  TIP3      H1              9.6497701459       16.6838734179       17.2361437563  TIP3      3047            0.0000000000
     26515      3183  TIP3      H2             10.5691694968       17.3371164838       16.2058100363  TIP3      3047            0.0000000000
     26516      3184  TIP3      OH2            11.8749636845       18.4278471559       15.8863814668  TIP3      3048            0.0000000000
     26517      3184  TIP3      H1             12.4971982322       17.9090584824       15.3695926874  TIP3      3048            0.0000000000
     26518      3184  TIP3      H2             12.3313870393       18.5627124436       16.7406772609  TIP3      3048            0.0000000000
     26519      3185  TIP3      OH2            16.8979226157        0.8131989273       14.4320849024  TIP3      3049            0.0000000000
     26520      3185  TIP3      H1             16.0178192592        1.1906666348       14.6020575791  TIP3      3049            0.0000000000
     26521      3185  TIP3      H2             17.0819596125        1.0557484951       13.5107143718  TIP3      3049            0.0000000000
     26522      3186  TIP3      OH2             2.9011745871       18.8006054969       13.7098536754  TIP3      3050            0.0000000000
     26523      3186  TIP3      H1              2.1239889512       19.3362780350       13.4127489609  TIP3      3050            0.0000000000
     26524      3186  TIP3      H2              2.9748159979       19.0769014815       14.6389400959  TIP3      3050            0.0000000000
     26525      3187  TIP3      OH2             5.2791920416       18.2992665124       12.5180732090  TIP3      3051            0.0000000000
     26526      3187  TIP3      H1              4.4488235539       18.6484034621       12.9118677894  TIP3      3051            0.0000000000
     26527      3187  TIP3      H2              5.3292542229       18.8112513900       11.6912204366  TIP3      3051            0.0000000000
     26528      3188  TIP3      OH2            10.1898365879       17.9517407221       11.4307130155  TIP3      3052            0.0000000000
     26529      3188  TIP3      H1              9.4617335425       18.3106165221       10.8671801327  TIP3      3052            0.0000000000
     26530      3188  TIP3      H2             10.2286578721       18.6592245425       12.1093108951  TIP3      3052            0.0000000000
     26531      3189  TIP3      OH2            12.1560563164       16.9029231327       13.0405798677  TIP3      3053            0.0000000000
     26532      3189  TIP3      H1             11.4305981797       17.1227128671       12.4193365034  TIP3      3053            0.0000000000
     26533      3189  TIP3      H2             12.6678675815       17.7390888539       12.9705652557  TIP3      3053            0.0000000000
     26534      3190  TIP3      OH2            14.1489215642       18.8439165495       12.7584023343  TIP3      3054            0.0000000000
     26535      3190  TIP3      H1             14.2019783216       19.8124725695       12.6424895701  TIP3      3054            0.0000000000
     26536      3190  TIP3      H2             14.9491637071       18.5907801034       12.2346082924  TIP3      3054            0.0000000000
     26537      3191  TIP3      OH2             2.6943434337       17.2792296839       10.1548631223  TIP3      3055            0.0000000000
     26538      3191  TIP3      H1              2.4969712273       16.7525650062       10.9392441266  TIP3      3055            0.0000000000
     26539      3191  TIP3      H2              3.5171980235       16.8376003504        9.8273819380  TIP3      3055            0.0000000000
     26540      3192  TIP3      OH2             4.7744303049       15.9587453086        9.2289265685  TIP3      3056            0.0000000000
     26541      3192  TIP3      H1              4.6380469488       15.0125193737        9.4534996437  TIP3      3056            0.0000000000
     26542      3192  TIP3      H2              5.6069637851       16.1135869274        9.7417846930  TIP3      3056            0.0000000000
     26543      3193  TIP3      OH2             6.9185267227       15.8899733098       10.6876385100  TIP3      3057            0.0000000000
     26544      3193  TIP3      H1              7.3052231047       15.0285894470       10.4175929733  TIP3      3057            0.0000000000
     26545      3193  TIP3      H2              7.1321901672       15.9182140087       11.6364744662  TIP3      3057            0.0000000000
     26546      3194  TIP3      OH2            10.8782855081        2.2962846389        9.4876500696  TIP3      3058            0.0000000000
     26547      3194  TIP3      H1              9.9784052353        1.9786918707        9.6988165427  TIP3      3058            0.0000000000
     26548      3194  TIP3      H2             11.3226657214        1.4359293974        9.5293224963  TIP3      3058            0.0000000000
     26549      3195  TIP3      OH2            15.4278131505        1.4500645627        9.3559548248  TIP3      3059            0.0000000000
     26550      3195  TIP3      H1             15.9977645377        1.4078400352        8.5577989918  TIP3      3059            0.0000000000
     26551      3195  TIP3      H2             14.9693006463        0.6000210217        9.2850993151  TIP3      3059            0.0000000000
     26552      3196  TIP3      OH2            17.3194386472        1.6805772296        7.2751704675  TIP3      3060            0.0000000000
     26553      3196  TIP3      H1             17.8559467246        1.1122734681        6.6763585588  TIP3      3060            0.0000000000
     26554      3196  TIP3      H2             18.0247245388        2.3244726038        7.5337184347  TIP3      3060            0.0000000000
     26555      3197  TIP3      OH2             3.3686173945        0.2784540020        6.7679525043  TIP3      3061            0.0000000000
     26556      3197  TIP3      H1              2.6114973568        0.2398656244        6.1527393611  TIP3      3061            0.0000000000
     26557      3197  TIP3      H2              4.0503970164       -0.1400872777        6.1780930817  TIP3      3061            0.0000000000
     26558      3198  TIP3      OH2             1.2617103397        0.5657829948        2.8954828181  TIP3      3062            0.0000000000
     26559      3198  TIP3      H1              1.8331983245        1.2333148678        2.4659525159  TIP3      3062            0.0000000000
     26560      3198  TIP3      H2              1.0039541707        1.0319912854        3.7154794572  TIP3      3062            0.0000000000
     26561      3199  TIP3      OH2             6.8711142271        0.4945611510        6.8379909929  TIP3      3063            0.0000000000
     26562      3199  TIP3      H1              7.8043692197        0.7155277670        6.9109604196  TIP3      3063            0.0000000000
     26563      3199  TIP3      H2              6.8118122212       -0.3764663988        7.2856528129  TIP3      3063            0.0000000000
     26564      3200  TIP3      OH2            13.2635586525        0.6210926076        7.4128328979  TIP3      3064            0.0000000000
     26565      3200  TIP3      H1             12.7709769325        1.3531017856        7.0074142920  TIP3      3064            0.0000000000
     26566      3200  TIP3      H2             12.7178235542        0.3382694792        8.1650796015  TIP3      3064            0.0000000000
     26567      3201  TIP3      OH2            14.4602305003        1.6440338947        4.0254510620  TIP3      3065            0.0000000000
     26568      3201  TIP3      H1             13.5645624246        2.0231142796        4.1012935734  TIP3      3065            0.0000000000
     26569      3201  TIP3      H2             14.3597831841        0.7659394747        4.4569090645  TIP3      3065            0.0000000000
     26570      3202  TIP3      OH2             1.9471275526       16.6338055291        3.7352607286  TIP3      3066            0.0000000000
     26571      3202  TIP3      H1              1.0434362498       16.3970623955        3.4851736388  TIP3      3066            0.0000000000
     26572      3202  TIP3      H2              1.8777591699       17.6069977784        3.5925869220  TIP3      3066            0.0000000000
     26573      3203  TIP3      OH2             3.2928043354        1.8531254711        1.4892283181  TIP3      3067            0.0000000000
     26574      3203  TIP3      H1              3.2340181050        1.3870731219        0.6394237655  TIP3      3067            0.0000000000
     26575      3203  TIP3      H2              4.2428038389        1.8675837633        1.7052031391  TIP3      3067            0.0000000000
     26576      3204  TIP3      OH2             8.5701880452        2.7373638828        4.1896479343  TIP3      3068            0.0000000000
     26577      3204  TIP3      H1              9.0836528341        1.9977722398        4.5473955728  TIP3      3068            0.0000000000
     26578      3204  TIP3      H2              8.9101224314        3.4621254753        4.7561315439  TIP3      3068            0.0000000000
     26579      3205  TIP3      OH2            10.6697641311       18.4253072897        1.8299136018  TIP3      3069            0.0000000000
     26580      3205  TIP3      H1             11.5529254982       18.6231504156        1.4703369588  TIP3      3069            0.0000000000
     26581      3205  TIP3      H2             10.6776384314       17.4491151792        1.7099262187  TIP3      3069            0.0000000000
     26582      3206  TIP3      OH2            17.0266364047       16.8827705025        5.1422799545  TIP3      3070            0.0000000000
     26583      3206  TIP3      H1             16.8594702162       16.2248761146        4.4164332564  TIP3      3070            0.0000000000
     26584      3206  TIP3      H2             17.0823849707       17.6983994761        4.6026006473  TIP3      3070            0.0000000000
     26585      3207  TIP3      OH2             2.3678316976        1.4522053617       16.7275895878  TIP3      3071            0.0000000000
     26586      3207  TIP3      H1              1.9099108205        0.7368798318       16.2436266207  TIP3      3071            0.0000000000
     26587      3207  TIP3      H2              3.1449664648        0.9937274651       17.0921804078  TIP3      3071            0.0000000000
     26588      3208  TIP3      OH2             4.8430782254       66.4091457574       17.6547983474  TIP3      3072            0.0000000000
     26589      3208  TIP3      H1              5.7644741549       66.6528440220       17.8502956717  TIP3      3072            0.0000000000
     26590      3208  TIP3      H2              4.8882044550       65.4585405049       17.8483098711  TIP3      3072            0.0000000000
     26591      3209  TIP3      OH2             4.0037502420       17.6216878262        0.9866948512  TIP3      3073            0.0000000000
     26592      3209  TIP3      H1              3.4073371427       17.9718519195        1.6607207990  TIP3      3073            0.0000000000
     26593      3209  TIP3      H2              3.9168157507       16.6724620696        1.1098563582  TIP3      3073            0.0000000000
     26594      3210  TIP3      OH2            12.9486202377       66.2672780375       18.0666507190  TIP3      3074            0.0000000000
     26595      3210  TIP3      H1             12.0711883133       65.9965229832       18.3833529296  TIP3      3074            0.0000000000
     26596      3210  TIP3      H2             13.4588374443       65.8562149080       18.8121782955  TIP3      3074            0.0000000000
     26597      3211  TIP3      OH2            16.2004661474       16.0459553915       16.7471208223  TIP3      3075            0.0000000000
     26598      3211  TIP3      H1             15.4728391156       15.8420304896       16.1176040787  TIP3      3075            0.0000000000
     26599      3211  TIP3      H2             16.1274920839       17.0183849169       16.7430179910  TIP3      3075            0.0000000000
     26600      3212  TIP3      OH2            31.2319866648        9.9984517088        6.7525258714  TIP3      3076            0.0000000000
     26601      3212  TIP3      H1             30.9368237827       10.9342764621        6.6918365510  TIP3      3076            0.0000000000
     26602      3212  TIP3      H2             30.6257714587        9.5804988824        6.1130290164  TIP3      3076            0.0000000000
     26603      3213  TIP3      OH2            29.9879235495        8.6399056315       10.2263173487  TIP3      3077            0.0000000000
     26604      3213  TIP3      H1             29.9846409607        8.5660019992       11.2092588483  TIP3      3077            0.0000000000
     26605      3213  TIP3      H2             29.5012733418        7.8275058607        9.9788516982  TIP3      3077            0.0000000000
     26606      3214  TIP3      OH2            21.9765628632        8.8366477521       11.7612785770  TIP3      3078            0.0000000000
     26607      3214  TIP3      H1             21.8825178807        7.9511480467       12.1601720696  TIP3      3078            0.0000000000
     26608      3214  TIP3      H2             22.8053905514        9.1649915048       12.1520033485  TIP3      3078            0.0000000000
     26609      3215  TIP3      OH2            32.9755409388       12.1746039221        8.2687835370  TIP3      3079            0.0000000000
     26610      3215  TIP3      H1             32.3694514763       11.4686694877        8.5032869083  TIP3      3079            0.0000000000
     26611      3215  TIP3      H2             33.2572778621       12.4906868953        9.1384132707  TIP3      3079            0.0000000000
     26612      3216  TIP3      OH2            23.0942592722       13.8174327866        9.3821245457  TIP3      3080            0.0000000000
     26613      3216  TIP3      H1             22.7701126325       12.9299500135        9.6192612662  TIP3      3080            0.0000000000
     26614      3216  TIP3      H2             24.0453343019       13.6198048034        9.4757303388  TIP3      3080            0.0000000000
     26615      3217  TIP3      OH2            19.9310269626        6.4248340261        5.3032019523  TIP3      3081            0.0000000000
     26616      3217  TIP3      H1             19.5898869238        7.2701384627        5.6428860314  TIP3      3081            0.0000000000
     26617      3217  TIP3      H2             19.2791326945        6.2639330458        4.5881702853  TIP3      3081            0.0000000000
     26618      3218  TIP3      OH2            20.2671057862        9.0411488275        8.2342020752  TIP3      3082            0.0000000000
     26619      3218  TIP3      H1             20.6539759991        8.1429101565        8.3835917456  TIP3      3082            0.0000000000
     26620      3218  TIP3      H2             21.0392405564        9.6018042800        8.0305853018  TIP3      3082            0.0000000000
     26621      3219  TIP3      OH2            30.8137387614       17.5071600793        8.6561208054  TIP3      3083            0.0000000000
     26622      3219  TIP3      H1             31.4526133366       16.8479590328        8.2961039224  TIP3      3083            0.0000000000
     26623      3219  TIP3      H2             30.4345109868       17.0045523432        9.3847170839  TIP3      3083            0.0000000000
     26624      3220  TIP3      OH2            28.1401867534       10.9886512334       10.9762297994  TIP3      3084            0.0000000000
     26625      3220  TIP3      H1             28.5688528378       10.8028268899       10.1289929916  TIP3      3084            0.0000000000
     26626      3220  TIP3      H2             28.8073933588       11.5358200038       11.4333750217  TIP3      3084            0.0000000000
     26627      3221  TIP3      OH2            36.6843272558        2.9177100134       11.0093866594  TIP3      3085            0.0000000000
     26628      3221  TIP3      H1             37.0449451762        3.6468812997       11.5589312833  TIP3      3085            0.0000000000
     26629      3221  TIP3      H2             37.2674749075        2.9239444992       10.2335619708  TIP3      3085            0.0000000000
     26630      3222  TIP3      OH2            31.6909116932        6.0705838187       11.3602869423  TIP3      3086            0.0000000000
     26631      3222  TIP3      H1             31.8016906350        5.1104923027       11.3816603135  TIP3      3086            0.0000000000
     26632      3222  TIP3      H2             31.5034462220        6.2205581951       10.4134764973  TIP3      3086            0.0000000000
     26633      3223  TIP3      OH2            24.5732458505        3.9847567074        8.0080944800  TIP3      3087            0.0000000000
     26634      3223  TIP3      H1             24.6913162471        4.7840507030        7.4424057351  TIP3      3087            0.0000000000
     26635      3223  TIP3      H2             24.0983126034        3.4162499977        7.3661614478  TIP3      3087            0.0000000000
     26636      3224  TIP3      OH2            32.1175564566        4.0600893490        6.7963815654  TIP3      3088            0.0000000000
     26637      3224  TIP3      H1             32.5700490444        3.7862244988        7.6204343462  TIP3      3088            0.0000000000
     26638      3224  TIP3      H2             32.7229820948        4.7578050801        6.4898466786  TIP3      3088            0.0000000000
     26639      3225  TIP3      OH2            21.0071187659        6.5679070049        8.9806788536  TIP3      3089            0.0000000000
     26640      3225  TIP3      H1             21.7389311970        6.2839611829        9.5585395738  TIP3      3089            0.0000000000
     26641      3225  TIP3      H2             21.1822963908        6.0557143683        8.1592299347  TIP3      3089            0.0000000000
     26642      3226  TIP3      OH2            25.7084309177        8.2110619046        8.2824222135  TIP3      3090            0.0000000000
     26643      3226  TIP3      H1             26.6067005622        7.8926466399        8.4615204446  TIP3      3090            0.0000000000
     26644      3226  TIP3      H2             25.3625054544        7.4559445803        7.7650112938  TIP3      3090            0.0000000000
     26645      3227  TIP3      OH2            37.1200452571        4.3255850068       13.5747637322  TIP3      3091            0.0000000000
     26646      3227  TIP3      H1             36.6363515866        5.1554274370       13.3274794541  TIP3      3091            0.0000000000
     26647      3227  TIP3      H2             36.8240008028        4.2266791719       14.4964746598  TIP3      3091            0.0000000000
     26648      3228  TIP3      OH2            23.3964046841        2.8512016946       12.1163025223  TIP3      3092            0.0000000000
     26649      3228  TIP3      H1             23.0116596124        3.3237370961       11.3522536226  TIP3      3092            0.0000000000
     26650      3228  TIP3      H2             22.7785552350        3.1564618186       12.8143214201  TIP3      3092            0.0000000000
     26651      3229  TIP3      OH2            30.3523224172       12.3184534023        5.7024469021  TIP3      3093            0.0000000000
     26652      3229  TIP3      H1             30.2084601352       12.3711213572        4.7343681456  TIP3      3093            0.0000000000
     26653      3229  TIP3      H2             30.1348048750       13.2428457497        5.9735749800  TIP3      3093            0.0000000000
     26654      3230  TIP3      OH2            25.6060938071       10.6427543439       12.0647717788  TIP3      3094            0.0000000000
     26655      3230  TIP3      H1             24.8928230189       11.2511892031       12.3635159051  TIP3      3094            0.0000000000
     26656      3230  TIP3      H2             26.3289709410       11.2540017556       11.8279990654  TIP3      3094            0.0000000000
     26657      3231  TIP3      OH2            34.2895695567        3.6735837843        8.7195265614  TIP3      3095            0.0000000000
     26658      3231  TIP3      H1             33.7702977497        3.2215322692        9.4107127644  TIP3      3095            0.0000000000
     26659      3231  TIP3      H2             35.0291501887        3.9972359189        9.2518476192  TIP3      3095            0.0000000000
     26660      3232  TIP3      OH2            23.0133556627        4.9195325538       10.1701441145  TIP3      3096            0.0000000000
     26661      3232  TIP3      H1             23.6389614512        5.5083017092       10.6492679367  TIP3      3096            0.0000000000
     26662      3232  TIP3      H2             23.5532374777        4.6606610857        9.3890360968  TIP3      3096            0.0000000000
     26663      3233  TIP3      OH2            23.3877080927       12.0777078918       12.4390136461  TIP3      3097            0.0000000000
     26664      3233  TIP3      H1             23.9746285909       12.8635853646       12.4556490966  TIP3      3097            0.0000000000
     26665      3233  TIP3      H2             22.8036362196       12.2616482968       13.2088768572  TIP3      3097            0.0000000000
     26666      3234  TIP3      OH2            20.2969813689       12.2589361067        3.9262377632  TIP3      3098            0.0000000000
     26667      3234  TIP3      H1             20.3103963335       12.7723737954        3.0879968510  TIP3      3098            0.0000000000
     26668      3234  TIP3      H2             20.3180299503       12.9902073361        4.5942536441  TIP3      3098            0.0000000000
     26669      3235  TIP3      OH2            33.6978383636       14.2021049593       11.0463711382  TIP3      3099            0.0000000000
     26670      3235  TIP3      H1             32.7272902031       14.1649814663       11.1571402155  TIP3      3099            0.0000000000
     26671      3235  TIP3      H2             33.7670202753       15.0910722311       10.6193638226  TIP3      3099            0.0000000000
     26672      3236  TIP3      OH2            34.3919308055        2.8239666240       12.4812331840  TIP3      3100            0.0000000000
     26673      3236  TIP3      H1             33.6631180317        2.7242729450       11.8348173291  TIP3      3100            0.0000000000
     26674      3236  TIP3      H2             35.1662022091        2.8909561776       11.8812032177  TIP3      3100            0.0000000000
     26675      3237  TIP3      OH2            27.3252270757        0.8666211468        9.4458302575  TIP3      3101            0.0000000000
     26676      3237  TIP3      H1             27.3957966232        0.0439277937        9.9358981052  TIP3      3101            0.0000000000
     26677      3237  TIP3      H2             26.4313863227        1.1643436531        9.7226299287  TIP3      3101            0.0000000000
     26678      3238  TIP3      OH2            32.4299946883       15.6725556465        7.3652879473  TIP3      3102            0.0000000000
     26679      3238  TIP3      H1             32.6626214259       14.8501028173        6.8825226045  TIP3      3102            0.0000000000
     26680      3238  TIP3      H2             33.1798468431       16.2607812394        7.1040132475  TIP3      3102            0.0000000000
     26681      3239  TIP3      OH2            33.4219529844       13.4608428962        5.9371366924  TIP3      3103            0.0000000000
     26682      3239  TIP3      H1             33.1691301030       12.7256119145        5.3561669800  TIP3      3103            0.0000000000
     26683      3239  TIP3      H2             33.3370079949       13.0210581868        6.8172830059  TIP3      3103            0.0000000000
     26684      3240  TIP3      OH2            34.8327509503       12.3565636578       14.5763039648  TIP3      3104            0.0000000000
     26685      3240  TIP3      H1             34.8659741112       11.6781155342       13.8517823874  TIP3      3104            0.0000000000
     26686      3240  TIP3      H2             34.9245515655       13.1833424365       14.0619111193  TIP3      3104            0.0000000000
     26687      3241  TIP3      OH2            29.4209592568        9.1607446592        4.3376149672  TIP3      3105            0.0000000000
     26688      3241  TIP3      H1             28.5524092681        9.6252930016        4.3506720457  TIP3      3105            0.0000000000
     26689      3241  TIP3      H2             29.9540897496        9.8761757513        3.9560915784  TIP3      3105            0.0000000000
     26690      3242  TIP3      OH2            29.3843694139        8.1709010082        1.4815651165  TIP3      3106            0.0000000000
     26691      3242  TIP3      H1             29.9606453534        8.3530846717        2.2569264868  TIP3      3106            0.0000000000
     26692      3242  TIP3      H2             29.9570146118        7.5743108289        0.9766624055  TIP3      3106            0.0000000000
     26693      3243  TIP3      OH2            36.9505359782        8.6917540177       12.6290562520  TIP3      3107            0.0000000000
     26694      3243  TIP3      H1             36.3264865653        9.4478259724       12.6917131897  TIP3      3107            0.0000000000
     26695      3243  TIP3      H2             37.4031184675        8.9482086357       11.7946704097  TIP3      3107            0.0000000000
     26696      3244  TIP3      OH2            33.3085166127        8.9877662490        5.2447103407  TIP3      3108            0.0000000000
     26697      3244  TIP3      H1             32.6838723513        9.4294351191        5.8614275941  TIP3      3108            0.0000000000
     26698      3244  TIP3      H2             33.9603855508        8.6195436697        5.8856433241  TIP3      3108            0.0000000000
     26699      3245  TIP3      OH2            33.1148934818        7.7428551082       14.1939996640  TIP3      3109            0.0000000000
     26700      3245  TIP3      H1             32.7789192906        8.5845971249       14.5477276376  TIP3      3109            0.0000000000
     26701      3245  TIP3      H2             32.5790576491        7.7052614830       13.3857470149  TIP3      3109            0.0000000000
     26702      3246  TIP3      OH2            24.1081978228        9.8884757826        7.0369075886  TIP3      3110            0.0000000000
     26703      3246  TIP3      H1             23.9647586220        9.4557855470        6.1713196068  TIP3      3110            0.0000000000
     26704      3246  TIP3      H2             24.8343129940        9.3704638700        7.4372962303  TIP3      3110            0.0000000000
     26705      3247  TIP3      OH2            26.0242010602       13.2991448838        9.7422801302  TIP3      3111            0.0000000000
     26706      3247  TIP3      H1             26.3279938636       12.8180861570        8.9668682318  TIP3      3111            0.0000000000
     26707      3247  TIP3      H2             26.4644131602       12.8256210420       10.4692567523  TIP3      3111            0.0000000000
     26708      3248  TIP3      OH2            24.6636527479        8.5388900131       10.7227176355  TIP3      3112            0.0000000000
     26709      3248  TIP3      H1             24.9945987788        8.6025627502        9.7977835956  TIP3      3112            0.0000000000
     26710      3248  TIP3      H2             25.0749597083        9.3397156182       11.1466564175  TIP3      3112            0.0000000000
     26711      3249  TIP3      OH2            30.9659073166       14.1779446390       11.3772000977  TIP3      3113            0.0000000000
     26712      3249  TIP3      H1             30.8803534360       14.6865239562       12.1974017792  TIP3      3113            0.0000000000
     26713      3249  TIP3      H2             30.6019424494       13.3103249243       11.6526997238  TIP3      3113            0.0000000000
     26714      3250  TIP3      OH2            25.3964972578       12.4898145758       15.9658544956  TIP3      3114            0.0000000000
     26715      3250  TIP3      H1             25.0272155566       13.3850872847       16.1398647757  TIP3      3114            0.0000000000
     26716      3250  TIP3      H2             25.7143986502       12.6426214665       15.0557888806  TIP3      3114            0.0000000000
     26717      3251  TIP3      OH2            31.8386826091        8.4828577787        2.9898963503  TIP3      3115            0.0000000000
     26718      3251  TIP3      H1             32.3495185559        8.5938424066        3.8222067199  TIP3      3115            0.0000000000
     26719      3251  TIP3      H2             32.2926008718        9.1099164409        2.3864717828  TIP3      3115            0.0000000000
     26720      3252  TIP3      OH2            22.8552910904        8.9619202836       14.6334912265  TIP3      3116            0.0000000000
     26721      3252  TIP3      H1             22.9276915587        9.8083490025       15.0954159172  TIP3      3116            0.0000000000
     26722      3252  TIP3      H2             21.9665576813        8.6722539490       14.9354647618  TIP3      3116            0.0000000000
     26723      3253  TIP3      OH2            29.6500692579       14.7404788662        6.6484221989  TIP3      3117            0.0000000000
     26724      3253  TIP3      H1             30.2638659043       15.2783200624        7.1601239098  TIP3      3117            0.0000000000
     26725      3253  TIP3      H2             29.1712784703       15.4097481892        6.1550223389  TIP3      3117            0.0000000000
     26726      3254  TIP3      OH2            24.2959668435       14.8661016946       16.2542831988  TIP3      3118            0.0000000000
     26727      3254  TIP3      H1             24.1286083575       15.3075078376       15.3935447086  TIP3      3118            0.0000000000
     26728      3254  TIP3      H2             23.4147525575       14.4724840954       16.4232300133  TIP3      3118            0.0000000000
     26729      3255  TIP3      OH2            35.3163151298        0.5242064026        3.0226795883  TIP3      3119            0.0000000000
     26730      3255  TIP3      H1             34.5216457637        1.0567978648        2.8692678317  TIP3      3119            0.0000000000
     26731      3255  TIP3      H2             35.9756823381        1.0690159522        2.5558499583  TIP3      3119            0.0000000000
     26732      3256  TIP3      OH2            23.2803234615        8.8420686577        4.6244585293  TIP3      3120            0.0000000000
     26733      3256  TIP3      H1             23.0707633771        9.7544840115        4.3056844237  TIP3      3120            0.0000000000
     26734      3256  TIP3      H2             22.5775343814        8.3306724942        4.2056869302  TIP3      3120            0.0000000000
     26735      3257  TIP3      OH2            36.6487578101       14.3530794766        1.0097149335  TIP3      3121            0.0000000000
     26736      3257  TIP3      H1             36.9422296127       15.2829253715        0.9992631809  TIP3      3121            0.0000000000
     26737      3257  TIP3      H2             37.4806184478       13.9016159221        1.2488373778  TIP3      3121            0.0000000000
     26738      3258  TIP3      OH2            19.7794971806       11.3879943355       13.8319501470  TIP3      3122            0.0000000000
     26739      3258  TIP3      H1             19.2594522488       11.2935392248       13.0177351816  TIP3      3122            0.0000000000
     26740      3258  TIP3      H2             20.4588367228       10.7051274854       13.6720154414  TIP3      3122            0.0000000000
     26741      3259  TIP3      OH2            19.4109466756       14.2502636966       10.0774782157  TIP3      3123            0.0000000000
     26742      3259  TIP3      H1             20.1274991975       13.6098127505       10.1040769018  TIP3      3123            0.0000000000
     26743      3259  TIP3      H2             19.7598152467       14.9256673717       10.6736856874  TIP3      3123            0.0000000000
     26744      3260  TIP3      OH2            37.4756255934       14.7552273650       16.2553856967  TIP3      3124            0.0000000000
     26745      3260  TIP3      H1             37.3344772228       13.7858279762       16.1892705915  TIP3      3124            0.0000000000
     26746      3260  TIP3      H2             36.5893510832       15.0398298209       16.5925092777  TIP3      3124            0.0000000000
     26747      3261  TIP3      OH2            28.8540947976       14.6496305929       14.8566254405  TIP3      3125            0.0000000000
     26748      3261  TIP3      H1             28.6342434131       15.4867577143       15.3085926592  TIP3      3125            0.0000000000
     26749      3261  TIP3      H2             28.0418876396       14.5023407525       14.3308100325  TIP3      3125            0.0000000000
     26750      3262  TIP3      OH2            29.0941712756       18.1076490277        4.5208992767  TIP3      3126            0.0000000000
     26751      3262  TIP3      H1             29.1482229149       18.4408268024        3.5941457081  TIP3      3126            0.0000000000
     26752      3262  TIP3      H2             29.1754976491       18.9554456751        5.0109497402  TIP3      3126            0.0000000000
     26753      3263  TIP3      OH2            22.8176680485       16.7254875448        6.6747301390  TIP3      3127            0.0000000000
     26754      3263  TIP3      H1             23.3195872089       16.5611650067        7.5085762463  TIP3      3127            0.0000000000
     26755      3263  TIP3      H2             21.9390975561       16.4271735587        6.9617541782  TIP3      3127            0.0000000000
     26756      3264  TIP3      OH2            32.2927253991       17.5802454931        1.7397463978  TIP3      3128            0.0000000000
     26757      3264  TIP3      H1             32.7585584805       16.7829939543        1.4102415409  TIP3      3128            0.0000000000
     26758      3264  TIP3      H2             32.0959506473       17.3191150751        2.6646954837  TIP3      3128            0.0000000000
     26759      3265  TIP3      OH2            31.6741842982       17.2701490253        4.3541836601  TIP3      3129            0.0000000000
     26760      3265  TIP3      H1             30.7344038977       17.4980930901        4.5227285768  TIP3      3129            0.0000000000
     26761      3265  TIP3      H2             31.8018639008       16.4729310456        4.8955819802  TIP3      3129            0.0000000000
     26762      3266  TIP3      OH2            34.7023057729        6.4105619735       16.6143003366  TIP3      3130            0.0000000000
     26763      3266  TIP3      H1             34.0670608431        6.8118399749       15.9949413413  TIP3      3130            0.0000000000
     26764      3266  TIP3      H2             34.5958881241        5.4685076543       16.3634393588  TIP3      3130            0.0000000000
     26765      3267  TIP3      OH2            22.0468287289       12.8272744143       14.6361537814  TIP3      3131            0.0000000000
     26766      3267  TIP3      H1             22.3478923409       12.4443696197       15.4843947223  TIP3      3131            0.0000000000
     26767      3267  TIP3      H2             21.1337120664       12.4915224480       14.5617125014  TIP3      3131            0.0000000000
     26768      3268  TIP3      OH2            24.8233635944        1.4601362111       10.3805744901  TIP3      3132            0.0000000000
     26769      3268  TIP3      H1             24.0613348288        1.5851808529        9.7754906079  TIP3      3132            0.0000000000
     26770      3268  TIP3      H2             24.4778950630        1.9194557057       11.1690909450  TIP3      3132            0.0000000000
     26771      3269  TIP3      OH2            29.1720236145        1.4245927131       14.3177543673  TIP3      3133            0.0000000000
     26772      3269  TIP3      H1             29.5170070183        0.5367250684       14.1807045499  TIP3      3133            0.0000000000
     26773      3269  TIP3      H2             28.2177913486        1.2937783568       14.4094658582  TIP3      3133            0.0000000000
     26774      3270  TIP3      OH2            32.3630674202        4.8213518904       14.7200335458  TIP3      3134            0.0000000000
     26775      3270  TIP3      H1             31.5636270690        4.6124478072       15.2619422554  TIP3      3134            0.0000000000
     26776      3270  TIP3      H2             32.2423376886        5.7634197100       14.5158412581  TIP3      3134            0.0000000000
     26777      3271  TIP3      OH2            33.1900264888        9.8849796157        1.0802693925  TIP3      3135            0.0000000000
     26778      3271  TIP3      H1             33.1482428429        9.9095413050        0.1096299486  TIP3      3135            0.0000000000
     26779      3271  TIP3      H2             34.1029249400       10.1982012616        1.2151224531  TIP3      3135            0.0000000000
     26780      3272  TIP3      OH2            29.0281913167        3.4333415534        1.6875499441  TIP3      3136            0.0000000000
     26781      3272  TIP3      H1             28.4985573155        3.3491716270        2.4934648383  TIP3      3136            0.0000000000
     26782      3272  TIP3      H2             28.4661226891        2.9443572108        1.0765187345  TIP3      3136            0.0000000000
     26783      3273  TIP3      OH2            24.8456057342        6.1250886982       11.7611836775  TIP3      3137            0.0000000000
     26784      3273  TIP3      H1             24.0931770910        6.1971796761       12.3802981237  TIP3      3137            0.0000000000
     26785      3273  TIP3      H2             24.7814273169        7.0229507627       11.3540235790  TIP3      3137            0.0000000000
     26786      3274  TIP3      OH2            24.7100926036        6.1586641627        6.5860416004  TIP3      3138            0.0000000000
     26787      3274  TIP3      H1             24.0888779152        6.8246251715        6.2741736539  TIP3      3138            0.0000000000
     26788      3274  TIP3      H2             25.1275684354        5.8735088063        5.7365282846  TIP3      3138            0.0000000000
     26789      3275  TIP3      OH2            30.3267404772        6.8020237291        5.2648409451  TIP3      3139            0.0000000000
     26790      3275  TIP3      H1             29.9970871893        7.6511170010        4.8773168850  TIP3      3139            0.0000000000
     26791      3275  TIP3      H2             30.9687837195        6.5358011482        4.5743875831  TIP3      3139            0.0000000000
     26792      3276  TIP3      OH2            29.1834256235        7.0886388552       16.7184205008  TIP3      3140            0.0000000000
     26793      3276  TIP3      H1             28.6362953042        6.4308050457       17.1940934227  TIP3      3140            0.0000000000
     26794      3276  TIP3      H2             30.0427624409        6.9494552907       17.1626650148  TIP3      3140            0.0000000000
     26795      3277  TIP3      OH2            31.3271139607        6.4847314817        8.6180561882  TIP3      3141            0.0000000000
     26796      3277  TIP3      H1             31.0253800927        7.3274626053        8.2206211433  TIP3      3141            0.0000000000
     26797      3277  TIP3      H2             31.1832259245        5.8731654594        7.8834309770  TIP3      3141            0.0000000000
     26798      3278  TIP3      OH2            22.2904156722        6.2664078813       12.9389887657  TIP3      3142            0.0000000000
     26799      3278  TIP3      H1             22.5992075497        6.8280425046       13.6741890664  TIP3      3142            0.0000000000
     26800      3278  TIP3      H2             22.0131092273        5.4418579504       13.3925473940  TIP3      3142            0.0000000000
     26801      3279  TIP3      OH2            25.5980375779        4.0257533867        0.6351594749  TIP3      3143            0.0000000000
     26802      3279  TIP3      H1             25.2120145901        3.6062369923        1.4291987491  TIP3      3143            0.0000000000
     26803      3279  TIP3      H2             25.4801407012        4.9767259312        0.8147576714  TIP3      3143            0.0000000000
     26804      3280  TIP3      OH2            19.4089389556        3.2839149377        7.5520453323  TIP3      3144            0.0000000000
     26805      3280  TIP3      H1             20.1200693739        3.8743968200        7.8431227521  TIP3      3144            0.0000000000
     26806      3280  TIP3      H2             19.3480683319        3.5262880626        6.6111224410  TIP3      3144            0.0000000000
     26807      3281  TIP3      OH2            20.1298487829        4.1503190526        2.3454393671  TIP3      3145            0.0000000000
     26808      3281  TIP3      H1             20.8876132600        3.5546145016        2.1918912568  TIP3      3145            0.0000000000
     26809      3281  TIP3      H2             20.4630560344        4.9876068240        1.9850470583  TIP3      3145            0.0000000000
     26810      3282  TIP3      OH2            30.4216323757        8.1050013352       12.7558109295  TIP3      3146            0.0000000000
     26811      3282  TIP3      H1             30.9244955152        7.3833774253       12.3133821481  TIP3      3146            0.0000000000
     26812      3282  TIP3      H2             29.7914214806        7.5791032313       13.2992478022  TIP3      3146            0.0000000000
     26813      3283  TIP3      OH2            27.4601738597        3.8861688982        7.7133975664  TIP3      3147            0.0000000000
     26814      3283  TIP3      H1             26.5260892054        3.6728293408        7.9123534755  TIP3      3147            0.0000000000
     26815      3283  TIP3      H2             27.9047431126        3.6203838719        8.5281038768  TIP3      3147            0.0000000000
     26816      3284  TIP3      OH2            21.6422872481        5.0730276955        6.8319320524  TIP3      3148            0.0000000000
     26817      3284  TIP3      H1             21.1414177499        5.4318823424        6.0544906693  TIP3      3148            0.0000000000
     26818      3284  TIP3      H2             22.1908442503        4.3631576431        6.4416118218  TIP3      3148            0.0000000000
     26819      3285  TIP3      OH2            25.5166762281        5.6228829931        4.1417232822  TIP3      3149            0.0000000000
     26820      3285  TIP3      H1             26.4878813342        5.6423437139        4.1798243098  TIP3      3149            0.0000000000
     26821      3285  TIP3      H2             25.2919916278        6.0700126458        3.2916037637  TIP3      3149            0.0000000000
     26822      3286  TIP3      OH2            32.2590642035        3.0961014859       10.4820393859  TIP3      3150            0.0000000000
     26823      3286  TIP3      H1             31.5796320260        3.2267844537       11.1859918691  TIP3      3150            0.0000000000
     26824      3286  TIP3      H2             31.6951736633        2.7765405060        9.7545577677  TIP3      3150            0.0000000000
     26825      3287  TIP3      OH2            24.8158337215        6.4252976027        1.6320446686  TIP3      3151            0.0000000000
     26826      3287  TIP3      H1             24.1242136919        6.6215336650        0.9820661703  TIP3      3151            0.0000000000
     26827      3287  TIP3      H2             25.5492426173        6.9772833097        1.2684809193  TIP3      3151            0.0000000000
     26828      3288  TIP3      OH2            34.6180444051       18.8074825430       17.3758274088  TIP3      3152            0.0000000000
     26829      3288  TIP3      H1             35.0032738738       19.2882010653       16.6145360612  TIP3      3152            0.0000000000
     26830      3288  TIP3      H2             35.3700122120       18.7579095100       17.9786224531  TIP3      3152            0.0000000000
     26831      3289  TIP3      OH2            22.5001081481       11.2368809251       16.8549793842  TIP3      3153            0.0000000000
     26832      3289  TIP3      H1             22.9114887626       11.9500812704       17.3662847094  TIP3      3153            0.0000000000
     26833      3289  TIP3      H2             21.9252086863       10.8065807672       17.5110060432  TIP3      3153            0.0000000000
     26834      3290  TIP3      OH2            28.4534727890        6.3912777449        9.4713841841  TIP3      3154            0.0000000000
     26835      3290  TIP3      H1             29.2280307216        5.8600837581        9.2375978473  TIP3      3154            0.0000000000
     26836      3290  TIP3      H2             27.9438193825        5.7699942185       10.0115711336  TIP3      3154            0.0000000000
     26837      3291  TIP3      OH2            23.1138877843        2.8064923073        6.1054682356  TIP3      3155            0.0000000000
     26838      3291  TIP3      H1             22.6827224297        2.0469828619        6.5571304366  TIP3      3155            0.0000000000
     26839      3291  TIP3      H2             23.7335258333        2.3437613260        5.5204480840  TIP3      3155            0.0000000000
     26840      3292  TIP3      OH2            27.2373747918        4.8729978641       11.8193872114  TIP3      3156            0.0000000000
     26841      3292  TIP3      H1             26.4633093779        5.4698630629       11.6972539904  TIP3      3156            0.0000000000
     26842      3292  TIP3      H2             27.8331239873        5.4484314868       12.3258735106  TIP3      3156            0.0000000000
     26843      3293  TIP3      OH2            27.7492632095       11.1915525310        3.9120293795  TIP3      3157            0.0000000000
     26844      3293  TIP3      H1             26.9793282441       10.8070115141        3.4277135000  TIP3      3157            0.0000000000
     26845      3293  TIP3      H2             27.3174840875       11.5300564630        4.7363929995  TIP3      3157            0.0000000000
     26846      3294  TIP3      OH2            35.2161286211       10.7849460347       12.4539707321  TIP3      3158            0.0000000000
     26847      3294  TIP3      H1             35.8618272082       11.3354296818       11.9426226114  TIP3      3158            0.0000000000
     26848      3294  TIP3      H2             34.5197690477       10.6405242580       11.7891027814  TIP3      3158            0.0000000000
     26849      3295  TIP3      OH2            31.9272620079        3.8696912509        1.3633392655  TIP3      3159            0.0000000000
     26850      3295  TIP3      H1             30.9609676733        3.7245434382        1.3114874175  TIP3      3159            0.0000000000
     26851      3295  TIP3      H2             31.9823589574        4.5814505474        2.0266487790  TIP3      3159            0.0000000000
     26852      3296  TIP3      OH2            29.4625839134       11.7867769926       15.3206370202  TIP3      3160            0.0000000000
     26853      3296  TIP3      H1             28.6462158824       11.4286359013       15.6994027604  TIP3      3160            0.0000000000
     26854      3296  TIP3      H2             29.2934559978       12.7461414003       15.3734234175  TIP3      3160            0.0000000000
     26855      3297  TIP3      OH2            32.1685829623        5.6037352140        3.5704260377  TIP3      3161            0.0000000000
     26856      3297  TIP3      H1             32.7804688176        5.7262681581        4.3264226885  TIP3      3161            0.0000000000
     26857      3297  TIP3      H2             32.3665823941        6.3947288370        3.0339029097  TIP3      3161            0.0000000000
     26858      3298  TIP3      OH2            22.7173804353       10.6868008754        9.1918835482  TIP3      3162            0.0000000000
     26859      3298  TIP3      H1             23.1769592936       10.5481914441        8.3354694883  TIP3      3162            0.0000000000
     26860      3298  TIP3      H2             23.1797133537       10.0934680173        9.8036160293  TIP3      3162            0.0000000000
     26861      3299  TIP3      OH2            29.7969439145       12.5005941566        2.9673158653  TIP3      3163            0.0000000000
     26862      3299  TIP3      H1             29.4164513727       13.3812124894        3.1887940302  TIP3      3163            0.0000000000
     26863      3299  TIP3      H2             29.0481904499       11.9013746516        3.2016345015  TIP3      3163            0.0000000000
     26864      3300  TIP3      OH2            20.0923403680        8.3633830403       14.6339768504  TIP3      3164            0.0000000000
     26865      3300  TIP3      H1             19.5446593366        7.9856710959       15.3511438153  TIP3      3164            0.0000000000
     26866      3300  TIP3      H2             19.4728411394        8.3579880117       13.8758619636  TIP3      3164            0.0000000000
     26867      3301  TIP3      OH2            26.4146363480        8.7595058013       16.4202766246  TIP3      3165            0.0000000000
     26868      3301  TIP3      H1             26.0348701804        8.1007255657       15.8191595002  TIP3      3165            0.0000000000
     26869      3301  TIP3      H2             27.2622027162        8.3463470888       16.6532965502  TIP3      3165            0.0000000000
     26870      3302  TIP3      OH2            31.6471206097       14.0485588237       15.1213353335  TIP3      3166            0.0000000000
     26871      3302  TIP3      H1             30.6894768698       14.1920244829       14.9541404951  TIP3      3166            0.0000000000
     26872      3302  TIP3      H2             31.7311649820       14.3341001402       16.0503342287  TIP3      3166            0.0000000000
     26873      3303  TIP3      OH2            36.8040997722        6.3156588930        3.4466602130  TIP3      3167            0.0000000000
     26874      3303  TIP3      H1             36.1924464413        6.2288230846        2.6895084092  TIP3      3167            0.0000000000
     26875      3303  TIP3      H2             37.1464895091        7.2121113484        3.2496758882  TIP3      3167            0.0000000000
     26876      3304  TIP3      OH2            37.2120971037       12.1143657013       15.7349955977  TIP3      3168            0.0000000000
     26877      3304  TIP3      H1             36.3761786537       12.2970712506       15.2377283057  TIP3      3168            0.0000000000
     26878      3304  TIP3      H2             37.8065360652       11.8081657613       15.0059155967  TIP3      3168            0.0000000000
     26879      3305  TIP3      OH2            35.3228680287       14.7802462723        3.4080339897  TIP3      3169            0.0000000000
     26880      3305  TIP3      H1             35.0911304374       13.9347970525        3.8149356969  TIP3      3169            0.0000000000
     26881      3305  TIP3      H2             35.6431979929       14.5329746175        2.5215357903  TIP3      3169            0.0000000000
     26882      3306  TIP3      OH2            32.7214913627        9.8322109767       10.6824088321  TIP3      3170            0.0000000000
     26883      3306  TIP3      H1             31.8156540324        9.5443807999       10.4921548767  TIP3      3170            0.0000000000
     26884      3306  TIP3      H2             33.2444538902        9.1305985527       10.2446599782  TIP3      3170            0.0000000000
     26885      3307  TIP3      OH2            25.2233964863       14.1187594583        6.8084430888  TIP3      3171            0.0000000000
     26886      3307  TIP3      H1             25.4176105586       15.0681555893        6.7261305040  TIP3      3171            0.0000000000
     26887      3307  TIP3      H2             24.3432669954       14.1043536704        6.4090555691  TIP3      3171            0.0000000000
     26888      3308  TIP3      OH2            20.9687168991        8.9720201080        2.3178530098  TIP3      3172            0.0000000000
     26889      3308  TIP3      H1             21.7560112910        9.4879826837        2.1056153498  TIP3      3172            0.0000000000
     26890      3308  TIP3      H2             20.2873440870        9.5148141024        1.8848371434  TIP3      3172            0.0000000000
     26891      3309  TIP3      OH2            26.5757652287       11.8471585882        6.2412818769  TIP3      3173            0.0000000000
     26892      3309  TIP3      H1             26.0943684125       12.7019968075        6.3458368280  TIP3      3173            0.0000000000
     26893      3309  TIP3      H2             26.5504304289       11.4714630350        7.1235070443  TIP3      3173            0.0000000000
     26894      3310  TIP3      OH2            26.9670416265       16.7850593002       12.5878354037  TIP3      3174            0.0000000000
     26895      3310  TIP3      H1             27.8711176712       17.0767385838       12.3603982144  TIP3      3174            0.0000000000
     26896      3310  TIP3      H2             27.0372460346       15.8246757175       12.7499217790  TIP3      3174            0.0000000000
     26897      3311  TIP3      OH2            25.5065553622       16.7216896017        5.8452439783  TIP3      3175            0.0000000000
     26898      3311  TIP3      H1             24.5480694258       16.8998276295        5.9203315764  TIP3      3175            0.0000000000
     26899      3311  TIP3      H2             25.8705622265       17.4756258300        6.3561501517  TIP3      3175            0.0000000000
     26900      3312  TIP3      OH2            30.2257645328       11.7524041455       12.4770570734  TIP3      3176            0.0000000000
     26901      3312  TIP3      H1             30.1057533333       11.6495457672       13.4470368331  TIP3      3176            0.0000000000
     26902      3312  TIP3      H2             30.5761444451       10.8799254038       12.2235803732  TIP3      3176            0.0000000000
     26903      3313  TIP3      OH2            33.0295640587       13.2350488836        1.9182020285  TIP3      3177            0.0000000000
     26904      3313  TIP3      H1             33.3388941651       12.6368092484        2.6350102238  TIP3      3177            0.0000000000
     26905      3313  TIP3      H2             32.0929783960       12.9795998845        1.9006221775  TIP3      3177            0.0000000000
     26906      3314  TIP3      OH2            33.5015565183       16.3149684160       14.5872225301  TIP3      3178            0.0000000000
     26907      3314  TIP3      H1             32.5837269137       15.9897372529       14.5396692210  TIP3      3178            0.0000000000
     26908      3314  TIP3      H2             33.4959043560       16.9709796224       13.8672980931  TIP3      3178            0.0000000000
     26909      3315  TIP3      OH2            37.4296595906       17.3205398577        1.7683958671  TIP3      3179            0.0000000000
     26910      3315  TIP3      H1             37.9105369905       18.0331696709        1.3308362067  TIP3      3179            0.0000000000
     26911      3315  TIP3      H2             36.6956111567       17.8276289759        2.1810234270  TIP3      3179            0.0000000000
     26912      3316  TIP3      OH2            21.8932596872        4.1276839822       14.4493871786  TIP3      3180            0.0000000000
     26913      3316  TIP3      H1             21.1385271060        4.5390297210       14.9176508749  TIP3      3180            0.0000000000
     26914      3316  TIP3      H2             22.3897044269        3.7390116467       15.1891422487  TIP3      3180            0.0000000000
     26915      3317  TIP3      OH2            33.7488251874       11.4044545838        3.7951273293  TIP3      3181            0.0000000000
     26916      3317  TIP3      H1             33.5085177564       10.5143193757        4.1193783919  TIP3      3181            0.0000000000
     26917      3317  TIP3      H2             34.7229933407       11.3849113121        3.8904813733  TIP3      3181            0.0000000000
     26918      3318  TIP3      OH2            21.4622369047       15.4387331165       12.5608373146  TIP3      3182            0.0000000000
     26919      3318  TIP3      H1             21.6946132290       14.5154587543       12.7605619245  TIP3      3182            0.0000000000
     26920      3318  TIP3      H2             22.2672575795       15.8705961884       12.9267871148  TIP3      3182            0.0000000000
     26921      3319  TIP3      OH2            25.7269506110       13.5463824720        2.5860733371  TIP3      3183            0.0000000000
     26922      3319  TIP3      H1             26.4641048617       13.0756028791        3.0026869899  TIP3      3183            0.0000000000
     26923      3319  TIP3      H2             25.9165325108       14.4890227150        2.8078462483  TIP3      3183            0.0000000000
     26924      3320  TIP3      OH2            22.7408979669       11.3219495964        3.3024593929  TIP3      3184            0.0000000000
     26925      3320  TIP3      H1             21.8481977249       11.5017995283        3.6710619058  TIP3      3184            0.0000000000
     26926      3320  TIP3      H2             22.8615573093       12.1222476332        2.7578201609  TIP3      3184            0.0000000000
     26927      3321  TIP3      OH2            30.6768657436        3.2715447784       12.8836435624  TIP3      3185            0.0000000000
     26928      3321  TIP3      H1             31.4125861331        3.4035042005       13.5049697647  TIP3      3185            0.0000000000
     26929      3321  TIP3      H2             30.0597768262        2.7960094370       13.4830818955  TIP3      3185            0.0000000000
     26930      3322  TIP3      OH2            30.8689426638        3.2504086985        4.5832545417  TIP3      3186            0.0000000000
     26931      3322  TIP3      H1             31.0178715407        3.9887836796        3.9628308300  TIP3      3186            0.0000000000
     26932      3322  TIP3      H2             31.2485899158        3.6561871963        5.3930202561  TIP3      3186            0.0000000000
     26933      3323  TIP3      OH2            28.9472206830       14.9999258249        3.5827609008  TIP3      3187            0.0000000000
     26934      3323  TIP3      H1             28.1567982584       15.5502254416        3.4855069601  TIP3      3187            0.0000000000
     26935      3323  TIP3      H2             29.5625494534       15.4418555837        2.9649733472  TIP3      3187            0.0000000000
     26936      3324  TIP3      OH2            28.2370164279        5.1096037935        5.3078263895  TIP3      3188            0.0000000000
     26937      3324  TIP3      H1             28.9201046721        5.8211650435        5.3106099206  TIP3      3188            0.0000000000
     26938      3324  TIP3      H2             28.0798769625        4.9558923431        6.2599859828  TIP3      3188            0.0000000000
     26939      3325  TIP3      OH2            29.2061900843        6.0911603626       14.2151138735  TIP3      3189            0.0000000000
     26940      3325  TIP3      H1             29.1387575126        6.4094450393       15.1515366165  TIP3      3189            0.0000000000
     26941      3325  TIP3      H2             29.5031585592        5.1752886127       14.3200448941  TIP3      3189            0.0000000000
     26942      3326  TIP3      OH2            29.0310756314        1.7131989033        6.1155475158  TIP3      3190            0.0000000000
     26943      3326  TIP3      H1             28.5113910363        2.3324528537        6.6613774369  TIP3      3190            0.0000000000
     26944      3326  TIP3      H2             29.7015878730        2.3347306187        5.7645284095  TIP3      3190            0.0000000000
     26945      3327  TIP3      OH2            25.9963118348       16.2387486901        3.1704736277  TIP3      3191            0.0000000000
     26946      3327  TIP3      H1             26.2438352213       17.0676205668        2.7211486478  TIP3      3191            0.0000000000
     26947      3327  TIP3      H2             25.8496117206       16.5551347430        4.0949034368  TIP3      3191            0.0000000000
     26948      3328  TIP3      OH2            24.5770806326        3.1358265627        3.0845704570  TIP3      3192            0.0000000000
     26949      3328  TIP3      H1             24.4412780367        3.9585560473        3.5792942282  TIP3      3192            0.0000000000
     26950      3328  TIP3      H2             25.4955514664        2.9359982177        3.3804613204  TIP3      3192            0.0000000000
     26951      3329  TIP3      OH2            34.7540289399        3.9045792611       15.4432606249  TIP3      3193            0.0000000000
     26952      3329  TIP3      H1             33.7857694497        4.0687504371       15.3527562021  TIP3      3193            0.0000000000
     26953      3329  TIP3      H2             34.9267317422        3.6845094593       14.5113259012  TIP3      3193            0.0000000000
     26954      3330  TIP3      OH2            33.7662438786        7.5026471625        9.2726033267  TIP3      3194            0.0000000000
     26955      3330  TIP3      H1             33.0109491676        6.8834557334        9.2158653447  TIP3      3194            0.0000000000
     26956      3330  TIP3      H2             34.4288281766        6.9852865482        9.7780201894  TIP3      3194            0.0000000000
     26957      3331  TIP3      OH2            23.2592855972       13.6012320518        1.5562995480  TIP3      3195            0.0000000000
     26958      3331  TIP3      H1             24.0733381307       13.6792323694        2.1106821950  TIP3      3195            0.0000000000
     26959      3331  TIP3      H2             23.6125528998       12.9798879157        0.8906639900  TIP3      3195            0.0000000000
     26960      3332  TIP3      OH2            20.9585092641        6.5422328262        0.7856631824  TIP3      3196            0.0000000000
     26961      3332  TIP3      H1             21.1701464573        7.1786705857        1.4854710120  TIP3      3196            0.0000000000
     26962      3332  TIP3      H2             20.0639287001        6.8532771310        0.5379046092  TIP3      3196            0.0000000000
     26963      3333  TIP3      OH2            34.4680692715       16.7006109456       10.5090842054  TIP3      3197            0.0000000000
     26964      3333  TIP3      H1             34.3074853505       17.5448546223       10.0401204234  TIP3      3197            0.0000000000
     26965      3333  TIP3      H2             35.3536248098       16.5243376290       10.1613277616  TIP3      3197            0.0000000000
     26966      3334  TIP3      OH2            22.3400319294        1.1615462137        9.2591349975  TIP3      3198            0.0000000000
     26967      3334  TIP3      H1             22.3255568446        0.9458067318        8.2990306446  TIP3      3198            0.0000000000
     26968      3334  TIP3      H2             22.0012305424        0.3275309646        9.6482484979  TIP3      3198            0.0000000000
     26969      3335  TIP3      OH2            20.3617215759       14.5361776245        5.3519943808  TIP3      3199            0.0000000000
     26970      3335  TIP3      H1             19.8926834104       15.1041365484        5.9816433264  TIP3      3199            0.0000000000
     26971      3335  TIP3      H2             20.5949213912       15.2262163137        4.6909672874  TIP3      3199            0.0000000000
     26972      3336  TIP3      OH2            19.8208123772       17.7707688960       16.9705281549  TIP3      3200            0.0000000000
     26973      3336  TIP3      H1             20.2532277061       17.3461064825       17.7345249959  TIP3      3200            0.0000000000
     26974      3336  TIP3      H2             19.2898451189       17.0440599410       16.5958933599  TIP3      3200            0.0000000000
     26975      3337  TIP3      OH2            25.1161213908       16.4410712313       18.3141792976  TIP3      3201            0.0000000000
     26976      3337  TIP3      H1             25.9001040211       15.9445832969       18.6272611573  TIP3      3201            0.0000000000
     26977      3337  TIP3      H2             24.9856259919       16.0256458668       17.4355742467  TIP3      3201            0.0000000000
     26978      3338  TIP3      OH2            29.9283268856       16.0102226568        1.0758437991  TIP3      3202            0.0000000000
     26979      3338  TIP3      H1             29.2810129538       15.5053855742        0.5293959461  TIP3      3202            0.0000000000
     26980      3338  TIP3      H2             30.5244575100       16.3545253086        0.3858483508  TIP3      3202            0.0000000000
     26981      3339  TIP3      OH2            31.4420139101       15.2757759273       17.5636579719  TIP3      3203            0.0000000000
     26982      3339  TIP3      H1             31.0040408719       14.4203808933       17.7887495679  TIP3      3203            0.0000000000
     26983      3339  TIP3      H2             32.2947068523       15.1495328873       18.0086732022  TIP3      3203            0.0000000000
     26984      3340  TIP3      OH2            33.9595552314       15.4818286394        0.3270196724  TIP3      3204            0.0000000000
     26985      3340  TIP3      H1             33.5969445756       14.7622727742        0.8906651817  TIP3      3204            0.0000000000
     26986      3340  TIP3      H2             34.8950023926       15.2008168963        0.3415405360  TIP3      3204            0.0000000000
     26987      3341  TIP3      OH2            20.0470776266       11.1681956115       18.3397569927  TIP3      3205            0.0000000000
     26988      3341  TIP3      H1             19.9332837878       10.3670499177       17.7986857357  TIP3      3205            0.0000000000
     26989      3341  TIP3      H2             19.1764873126       11.5823400797       18.2313570129  TIP3      3205            0.0000000000
     26990      3342  TIP3      OH2            25.1222896252       11.7052451516        0.3968990685  TIP3      3206            0.0000000000
     26991      3342  TIP3      H1             25.3604932469       11.3035298983        1.2460107325  TIP3      3206            0.0000000000
     26992      3342  TIP3      H2             25.2830650333       10.9330604672       -0.1840693125  TIP3      3206            0.0000000000
     26993      3343  TIP3      OH2            27.0397759359       11.1473389294       17.5089753628  TIP3      3207            0.0000000000
     26994      3343  TIP3      H1             26.4578464450       11.7348154047       16.9587870529  TIP3      3207            0.0000000000
     26995      3343  TIP3      H2             26.7086755416       10.2837875048       17.1557407980  TIP3      3207            0.0000000000
     26996      3344  TIP3      OH2            32.5224744904       11.1004163081       15.0816593589  TIP3      3208            0.0000000000
     26997      3344  TIP3      H1             33.3359417277       11.6485375136       15.0514116250  TIP3      3208            0.0000000000
     26998      3344  TIP3      H2             31.8410825797       11.7967154370       15.0577862579  TIP3      3208            0.0000000000
     26999      3345  TIP3      OH2            21.0183575437        8.3114600203       18.4723059381  TIP3      3209            0.0000000000
     27000      3345  TIP3      H1             21.0259518438        7.3430473870       18.5946754524  TIP3      3209            0.0000000000
     27001      3345  TIP3      H2             20.7982930934        8.5912275644       19.3800233565  TIP3      3209            0.0000000000
     27002      3346  TIP3      OH2            25.8896940293        9.8133196962        2.4595146089  TIP3      3210            0.0000000000
     27003      3346  TIP3      H1             25.1212161927        9.3524954918        2.8333091836  TIP3      3210            0.0000000000
     27004      3346  TIP3      H2             26.2878446308        9.1327748901        1.8785758212  TIP3      3210            0.0000000000
     27005      3347  TIP3      OH2            24.9199791066        7.3818231941       14.2678493392  TIP3      3211            0.0000000000
     27006      3347  TIP3      H1             24.2783196201        8.1271609196       14.2969395512  TIP3      3211            0.0000000000
     27007      3347  TIP3      H2             25.6822172488        7.7949610737       13.8154086764  TIP3      3211            0.0000000000
     27008      3348  TIP3      OH2            26.8242852347        7.9712967638        0.6016207789  TIP3      3212            0.0000000000
     27009      3348  TIP3      H1             27.0276431775        8.1797947415       -0.3324943763  TIP3      3212            0.0000000000
     27010      3348  TIP3      H2             27.7331200885        8.0214854994        0.9954608276  TIP3      3212            0.0000000000
     27011      3349  TIP3      OH2            30.4231240039       10.2470837585       18.3537225872  TIP3      3213            0.0000000000
     27012      3349  TIP3      H1             30.7526003048       10.1975179305       17.4411957904  TIP3      3213            0.0000000000
     27013      3349  TIP3      H2             30.6750508192        9.3760934158       18.6864502522  TIP3      3213            0.0000000000
     27014      3350  TIP3      OH2            35.6473155780       10.7977949122       84.7437674117  TIP3      3214            0.0000000000
     27015      3350  TIP3      H1             34.9519960842       10.8668753992       84.0675039110  TIP3      3214            0.0000000000
     27016      3350  TIP3      H2             35.7190892390       11.7173156120       85.0246962277  TIP3      3214            0.0000000000
     27017      3351  TIP3      OH2            25.3242055203        5.0937790497       15.5499383984  TIP3      3215            0.0000000000
     27018      3351  TIP3      H1             25.5294043277        4.4111657699       14.8716026003  TIP3      3215            0.0000000000
     27019      3351  TIP3      H2             25.1232896621        5.8811097884       14.9896530891  TIP3      3215            0.0000000000
     27020      3352  TIP3      OH2            25.7897221060        3.3127505310       13.4962258327  TIP3      3216            0.0000000000
     27021      3352  TIP3      H1             26.4217276360        3.7581486501       12.8872531346  TIP3      3216            0.0000000000
     27022      3352  TIP3      H2             24.9912539535        3.2583718636       12.9319960787  TIP3      3216            0.0000000000
     27023      3353  TIP3      OH2            27.3130698596        9.0409053164       13.3719914217  TIP3      3217            0.0000000000
     27024      3353  TIP3      H1             28.0732878101        9.5285925899       13.0348618044  TIP3      3217            0.0000000000
     27025      3353  TIP3      H2             26.5895472872        9.6615288785       13.1384908518  TIP3      3217            0.0000000000
     27026      3354  TIP3      OH2            31.5828729441        6.0280156657       18.1347494268  TIP3      3218            0.0000000000
     27027      3354  TIP3      H1             31.7000370188        5.3274703821       18.7971465472  TIP3      3218            0.0000000000
     27028      3354  TIP3      H2             32.5014155079        6.2950525389       17.9696661849  TIP3      3218            0.0000000000
     27029      3355  TIP3      OH2            33.0533794701        9.5105767381       17.1226650995  TIP3      3219            0.0000000000
     27030      3355  TIP3      H1             32.7292810945       10.0287954623       16.3511722654  TIP3      3219            0.0000000000
     27031      3355  TIP3      H2             33.9558395080        9.2894085587       16.8072930615  TIP3      3219            0.0000000000
     27032      3356  TIP3      OH2            24.3112408532        5.7679346226       17.8426530980  TIP3      3220            0.0000000000
     27033      3356  TIP3      H1             23.3837448023        5.8933477464       17.6194220527  TIP3      3220            0.0000000000
     27034      3356  TIP3      H2             24.6889824335        5.4249090521       16.9920960069  TIP3      3220            0.0000000000
     27035      3357  TIP3      OH2            26.3385628690        0.7827555341       13.9446811848  TIP3      3221            0.0000000000
     27036      3357  TIP3      H1             26.3020592959        1.7761338200       13.9305217803  TIP3      3221            0.0000000000
     27037      3357  TIP3      H2             25.6864555958        0.5975745491       13.2546375256  TIP3      3221            0.0000000000
     27038      3358  TIP3      OH2            27.6151048408        4.9417965303       17.7103994005  TIP3      3222            0.0000000000
     27039      3358  TIP3      H1             27.0162537921        4.4561177877       18.3249103003  TIP3      3222            0.0000000000
     27040      3358  TIP3      H2             27.0631127410        4.8708277619       16.9171139533  TIP3      3222            0.0000000000
     27041      3359  TIP3      OH2            30.2410315665        4.1372517853       16.3763460613  TIP3      3223            0.0000000000
     27042      3359  TIP3      H1             29.3598371042        4.1248314283       16.7766402475  TIP3      3223            0.0000000000
     27043      3359  TIP3      H2             30.7594470846        3.7482980805       17.1152594119  TIP3      3223            0.0000000000
     27044      3360  TIP3      OH2            31.7873662870        2.7811363798       18.5082510478  TIP3      3224            0.0000000000
     27045      3360  TIP3      H1             31.9635572107        1.8203267756       18.6128071717  TIP3      3224            0.0000000000
     27046      3360  TIP3      H2             32.6467255115        3.1600416430       18.7793809708  TIP3      3224            0.0000000000
     27047      3361  TIP3      OH2            21.7187146701        3.5453723186       17.8269340421  TIP3      3225            0.0000000000
     27048      3361  TIP3      H1             22.6873498670        3.4836327848       17.7888035929  TIP3      3225            0.0000000000
     27049      3361  TIP3      H2             21.5950951209        3.3699153517       18.7825857330  TIP3      3225            0.0000000000
     27050      3362  TIP3      OH2            27.0722760043        1.1485695885       16.5432484405  TIP3      3226            0.0000000000
     27051      3362  TIP3      H1             27.2802910300        0.2389723729       16.8040264315  TIP3      3226            0.0000000000
     27052      3362  TIP3      H2             26.5588367348        1.0173312057       15.7186527502  TIP3      3226            0.0000000000
     27053      3363  TIP3      OH2            26.3935391424       18.7159446415        1.8022555601  TIP3      3227            0.0000000000
     27054      3363  TIP3      H1             27.0409412703       19.3243458996        2.1812433537  TIP3      3227            0.0000000000
     27055      3363  TIP3      H2             26.7851217583       18.5094733389        0.9344373831  TIP3      3227            0.0000000000
     27056      3364  TIP3      OH2            20.4974682479       13.6188367893        1.4811508183  TIP3      3228            0.0000000000
     27057      3364  TIP3      H1             21.4448662868       13.8357520436        1.3727957558  TIP3      3228            0.0000000000
     27058      3364  TIP3      H2             20.3790150308       12.8085752125        0.9335559509  TIP3      3228            0.0000000000
     27059      3365  TIP3      OH2            19.0614343131       18.1762110992        6.4238334011  TIP3      3229            0.0000000000
     27060      3365  TIP3      H1             18.3538726745       17.6379444487        6.0076815253  TIP3      3229            0.0000000000
     27061      3365  TIP3      H2             19.4389257038       17.5238161381        7.0446881312  TIP3      3229            0.0000000000
     27062      3366  TIP3      OH2            19.9841756454       16.4083695425        8.2686814118  TIP3      3230            0.0000000000
     27063      3366  TIP3      H1             19.4999090117       15.6560324427        8.6687996632  TIP3      3230            0.0000000000
     27064      3366  TIP3      H2             20.0669023232       16.9879539544        9.0595278686  TIP3      3230            0.0000000000
     27065      3367  TIP3      OH2            37.5276334950       17.2549733492       10.7976552787  TIP3      3231            0.0000000000
     27066      3367  TIP3      H1             37.5128291770       17.2794522837       11.7673061214  TIP3      3231            0.0000000000
     27067      3367  TIP3      H2             37.9369546247       18.1089418582       10.6143941963  TIP3      3231            0.0000000000
     27068      3368  TIP3      OH2            37.3862910707       16.5750168901       13.8487380135  TIP3      3232            0.0000000000
     27069      3368  TIP3      H1             36.7448456818       16.0499753029       13.3245590269  TIP3      3232            0.0000000000
     27070      3368  TIP3      H2             37.3513872737       16.0891139288       14.6879037943  TIP3      3232            0.0000000000
     27071      3369  TIP3      OH2            35.9495770196       12.8345945894       18.7554412496  TIP3      3233            0.0000000000
     27072      3369  TIP3      H1             35.2255247636       12.9362621016       19.3959282403  TIP3      3233            0.0000000000
     27073      3369  TIP3      H2             35.7976822283       13.5880417798       18.1682347542  TIP3      3233            0.0000000000
     27074      3370  TIP3      OH2            36.5554765831       11.0305668611        3.7949650754  TIP3      3234            0.0000000000
     27075      3370  TIP3      H1             37.4452565752       11.4063200650        3.9993154789  TIP3      3234            0.0000000000
     27076      3370  TIP3      H2             36.3922598876       10.5406815673        4.6351119474  TIP3      3234            0.0000000000
     27077      3371  TIP3      OH2            36.8565194063        9.2759495960        5.8603216090  TIP3      3235            0.0000000000
     27078      3371  TIP3      H1             36.2673255035        8.6838349973        6.3919330611  TIP3      3235            0.0000000000
     27079      3371  TIP3      H2             37.6146462645        9.3781082249        6.4636318126  TIP3      3235            0.0000000000
     27080      3372  TIP3      OH2            37.1922532170       11.7433525372       11.0449028389  TIP3      3236            0.0000000000
     27081      3372  TIP3      H1             37.5894090403       10.9834418877       10.5665571597  TIP3      3236            0.0000000000
     27082      3372  TIP3      H2             37.4801184694       12.5129025618       10.5172297419  TIP3      3236            0.0000000000
     27083      3373  TIP3      OH2            35.4355515538       14.6539168049       13.1286850799  TIP3      3237            0.0000000000
     27084      3373  TIP3      H1             34.7944564507       15.2172900450       13.6179910565  TIP3      3237            0.0000000000
     27085      3373  TIP3      H2             34.9286992716       14.5107624544       12.2930280802  TIP3      3237            0.0000000000
     27086      3374  TIP3      OH2            37.0481123600        8.7910077958        2.2242980305  TIP3      3238            0.0000000000
     27087      3374  TIP3      H1             36.4184536846        8.8455362730        1.4899219647  TIP3      3238            0.0000000000
     27088      3374  TIP3      H2             36.8401235272        9.5758825265        2.7731053249  TIP3      3238            0.0000000000
     27089      3375  TIP3      OH2            34.6949381029        6.1135332768        0.9517323797  TIP3      3239            0.0000000000
     27090      3375  TIP3      H1             35.5788648660        6.3320559476        0.6070741821  TIP3      3239            0.0000000000
     27091      3375  TIP3      H2             34.6575538545        5.1535576370        0.7064643217  TIP3      3239            0.0000000000
     27092      3376  TIP3      OH2            35.1446758824        7.6806033482        6.9977550991  TIP3      3240            0.0000000000
     27093      3376  TIP3      H1             34.7121875963        6.8676442620        6.6624178009  TIP3      3240            0.0000000000
     27094      3376  TIP3      H2             34.7389240405        7.7692585899        7.8890552561  TIP3      3240            0.0000000000
     27095      3377  TIP3      OH2            19.8818736166        9.9557044219       10.7020422509  TIP3      3241            0.0000000000
     27096      3377  TIP3      H1             19.8557206392        9.5867252700        9.7838802593  TIP3      3241            0.0000000000
     27097      3377  TIP3      H2             20.8069590378        9.6916566134       10.9428834731  TIP3      3241            0.0000000000
     27098      3378  TIP3      OH2            35.7721677481        9.5122412863       16.2760626976  TIP3      3242            0.0000000000
     27099      3378  TIP3      H1             36.3551504944        8.7187580042       16.2600156090  TIP3      3242            0.0000000000
     27100      3378  TIP3      H2             36.3115311586       10.2183198530       15.8746480839  TIP3      3242            0.0000000000
     27101      3379  TIP3      OH2            37.2600665076        7.2244927146       16.3230111447  TIP3      3243            0.0000000000
     27102      3379  TIP3      H1             36.3419104509        6.9620094817       16.1216468073  TIP3      3243            0.0000000000
     27103      3379  TIP3      H2             37.5051499241        6.4467565868       16.8681428653  TIP3      3243            0.0000000000
     27104      3380  TIP3      OH2            34.7827964504        3.6308478813        0.0225299069  TIP3      3244            0.0000000000
     27105      3380  TIP3      H1             35.3441282127        2.9599303910        0.4570596377  TIP3      3244            0.0000000000
     27106      3380  TIP3      H2             33.8692127825        3.3191519345        0.1904149572  TIP3      3244            0.0000000000
     27107      3381  TIP3      OH2            34.2068525189        5.7369423010        5.3586407149  TIP3      3245            0.0000000000
     27108      3381  TIP3      H1             34.5866965740        4.8335143471        5.4944660909  TIP3      3245            0.0000000000
     27109      3381  TIP3      H2             34.7890055242        6.0309253737        4.6356852944  TIP3      3245            0.0000000000
     27110      3382  TIP3      OH2            35.5689615237        5.9767599430       10.7046373464  TIP3      3246            0.0000000000
     27111      3382  TIP3      H1             36.5516778489        6.0399881078       10.6935055236  TIP3      3246            0.0000000000
     27112      3382  TIP3      H2             35.4441553006        6.1125914593       11.6627071853  TIP3      3246            0.0000000000
     27113      3383  TIP3      OH2            35.5947402404        6.5107894203       13.4807747924  TIP3      3247            0.0000000000
     27114      3383  TIP3      H1             34.7044510015        6.8160366613       13.7628646935  TIP3      3247            0.0000000000
     27115      3383  TIP3      H2             36.0198995052        7.3565011176       13.2165893369  TIP3      3247            0.0000000000
     27116      3384  TIP3      OH2            19.4149264265        4.6059614343       16.9063795891  TIP3      3248            0.0000000000
     27117      3384  TIP3      H1             20.2665942935        4.4063205943       17.3544723856  TIP3      3248            0.0000000000
     27118      3384  TIP3      H2             18.8074183178        4.0451127014       17.4165856676  TIP3      3248            0.0000000000
     27119      3385  TIP3      OH2            37.0227107314        0.2309160486       18.2746331211  TIP3      3249            0.0000000000
     27120      3385  TIP3      H1             37.2126552795       -0.6465659540       17.8820883927  TIP3      3249            0.0000000000
     27121      3385  TIP3      H2             37.4415090226        0.8036927671       17.6009600180  TIP3      3249            0.0000000000
     27122      3386  TIP3      OH2            35.1623540106        3.2815222054        5.2407417411  TIP3      3250            0.0000000000
     27123      3386  TIP3      H1             35.5139362696        2.6233515252        5.8890166520  TIP3      3250            0.0000000000
     27124      3386  TIP3      H2             34.6039710305        2.7294423199        4.6630593669  TIP3      3250            0.0000000000
     27125      3387  TIP3      OH2            20.7034659243        3.1423181438       10.4248107322  TIP3      3251            0.0000000000
     27126      3387  TIP3      H1             21.1510321170        2.4023276391        9.9746292697  TIP3      3251            0.0000000000
     27127      3387  TIP3      H2             21.2957336985        3.8941811635       10.2441968424  TIP3      3251            0.0000000000
     27128      3388  TIP3      OH2            19.1688789285        6.1492552304       10.8513695857  TIP3      3252            0.0000000000
     27129      3388  TIP3      H1             19.7832289858        5.8884881527       10.1414402427  TIP3      3252            0.0000000000
     27130      3388  TIP3      H2             19.5421729037        7.0100201410       11.0678855648  TIP3      3252            0.0000000000
     27131      3389  TIP3      OH2            37.4435865088        2.1533341364       16.5116379768  TIP3      3253            0.0000000000
     27132      3389  TIP3      H1             37.1752402679        2.7622025691       17.2223415038  TIP3      3253            0.0000000000
     27133      3389  TIP3      H2             36.5897897194        1.9384674754       16.0909247227  TIP3      3253            0.0000000000
     27134      3390  TIP3      OH2            36.9410840914        2.2019908180        1.3681459291  TIP3      3254            0.0000000000
     27135      3390  TIP3      H1             37.6461903462        1.6816370886        0.9680341587  TIP3      3254            0.0000000000
     27136      3390  TIP3      H2             37.4107886438        3.0567980405        1.4832982171  TIP3      3254            0.0000000000
     27137      3391  TIP3      OH2            18.9854596963        3.0022275579        4.6387027776  TIP3      3255            0.0000000000
     27138      3391  TIP3      H1             18.0171817726        3.1003615724        4.7656825462  TIP3      3255            0.0000000000
     27139      3391  TIP3      H2             19.1805526349        3.7572925863        4.0371357930  TIP3      3255            0.0000000000
     27140      3392  TIP3      OH2            34.1763170303       17.5253887761        6.8022306813  TIP3      3256            0.0000000000
     27141      3392  TIP3      H1             34.9173330156       17.2059233040        6.2548224783  TIP3      3256            0.0000000000
     27142      3392  TIP3      H2             34.6015091523       18.0992473219        7.4722958316  TIP3      3256            0.0000000000
     27143      3393  TIP3      OH2            19.0306027756        1.2335691768       12.6189044894  TIP3      3257            0.0000000000
     27144      3393  TIP3      H1             18.5757501959        0.4342050206       12.2922029244  TIP3      3257            0.0000000000
     27145      3393  TIP3      H2             18.8251219457        1.9071042300       11.9389472257  TIP3      3257            0.0000000000
     27146      3394  TIP3      OH2            21.8825140487       14.2214284782       17.3552166899  TIP3      3258            0.0000000000
     27147      3394  TIP3      H1             21.2935204455       14.9466523113       17.1236654558  TIP3      3258            0.0000000000
     27148      3394  TIP3      H2             21.4713801906       13.8810575494       18.1665434781  TIP3      3258            0.0000000000
     27149      3395  TIP3      OH2            23.9069546507       15.9547472075       13.6685551718  TIP3      3259            0.0000000000
     27150      3395  TIP3      H1             24.3642506243       16.7946412498       13.4212041784  TIP3      3259            0.0000000000
     27151      3395  TIP3      H2             24.6056060534       15.3180971989       13.3962015391  TIP3      3259            0.0000000000
     27152      3396  TIP3      OH2            28.8849695728       17.1114097702       16.5755750326  TIP3      3260            0.0000000000
     27153      3396  TIP3      H1             29.1698555703       17.0159059177       17.5130596735  TIP3      3260            0.0000000000
     27154      3396  TIP3      H2             29.7325713404       17.3133961219       16.1098885721  TIP3      3260            0.0000000000
     27155      3397  TIP3      OH2            30.9917103915       18.4037456032       15.6380472202  TIP3      3261            0.0000000000
     27156      3397  TIP3      H1             31.6079689586       18.6909117700       14.9367874879  TIP3      3261            0.0000000000
     27157      3397  TIP3      H2             31.3717096577       18.7451102164       16.4585373802  TIP3      3261            0.0000000000
     27158      3398  TIP3      OH2            35.7362655039        0.6952087773       14.8182046224  TIP3      3262            0.0000000000
     27159      3398  TIP3      H1             35.3892019722        1.3665766979       14.2066781701  TIP3      3262            0.0000000000
     27160      3398  TIP3      H2             35.9950525945       -0.0251528651       14.2177625309  TIP3      3262            0.0000000000
     27161      3399  TIP3      OH2            22.0008934634       18.7445633663       13.4129813008  TIP3      3263            0.0000000000
     27162      3399  TIP3      H1             21.1956511187       19.2949426240       13.2782815950  TIP3      3263            0.0000000000
     27163      3399  TIP3      H2             21.9401376168       18.4669427423       14.3366026187  TIP3      3263            0.0000000000
     27164      3400  TIP3      OH2            24.5304765808       18.3343574613       12.6394667520  TIP3      3264            0.0000000000
     27165      3400  TIP3      H1             23.6016573525       18.5462579655       12.8747300036  TIP3      3264            0.0000000000
     27166      3400  TIP3      H2             24.5360061372       18.5319059134       11.6942086918  TIP3      3264            0.0000000000
     27167      3401  TIP3      OH2            29.0808939582       18.1395496380       11.5621802495  TIP3      3265            0.0000000000
     27168      3401  TIP3      H1             28.2461398277       18.5335933596       11.2356262914  TIP3      3265            0.0000000000
     27169      3401  TIP3      H2             29.2976706301       18.7118952902       12.3363438295  TIP3      3265            0.0000000000
     27170      3402  TIP3      OH2            31.2451473809       16.9354163074       13.0967882288  TIP3      3266            0.0000000000
     27171      3402  TIP3      H1             30.5710945340       16.9949272556       12.4032498150  TIP3      3266            0.0000000000
     27172      3402  TIP3      H2             31.6577192975       17.8134630205       12.9513957680  TIP3      3266            0.0000000000
     27173      3403  TIP3      OH2            34.9549282695       18.2940993147       12.6912105591  TIP3      3267            0.0000000000
     27174      3403  TIP3      H1             34.1166880421       18.8040640030       12.5952282265  TIP3      3267            0.0000000000
     27175      3403  TIP3      H2             34.7938888038       17.5860387326       12.0301970479  TIP3      3267            0.0000000000
     27176      3404  TIP3      OH2            21.6422356743       17.3441575360       10.3836622796  TIP3      3268            0.0000000000
     27177      3404  TIP3      H1             21.6751298807       16.7109692896       11.1230885727  TIP3      3268            0.0000000000
     27178      3404  TIP3      H2             22.4696229445       17.0947631312        9.9020569879  TIP3      3268            0.0000000000
     27179      3405  TIP3      OH2            23.8271372925       16.4117635018        9.0953034097  TIP3      3269            0.0000000000
     27180      3405  TIP3      H1             23.5403020806       15.4736022936        9.2339257474  TIP3      3269            0.0000000000
     27181      3405  TIP3      H2             24.7535730525       16.3813598063        9.4379708508  TIP3      3269            0.0000000000
     27182      3406  TIP3      OH2            26.2558093860       16.1482459737        9.9998225272  TIP3      3270            0.0000000000
     27183      3406  TIP3      H1             26.3119001705       15.1684970700        9.9381478251  TIP3      3270            0.0000000000
     27184      3406  TIP3      H2             26.3715777383       16.2919687368       10.9621163830  TIP3      3270            0.0000000000
     27185      3407  TIP3      OH2            29.6353157055        2.3228256406        9.2598016809  TIP3      3271            0.0000000000
     27186      3407  TIP3      H1             28.7768073634        1.8566874085        9.2180240238  TIP3      3271            0.0000000000
     27187      3407  TIP3      H2             30.2099490088        1.5513031542        9.3411940414  TIP3      3271            0.0000000000
     27188      3408  TIP3      OH2            34.9983188814        0.1740614874        8.9887509303  TIP3      3272            0.0000000000
     27189      3408  TIP3      H1             35.0725345979        1.0096662775        8.4938017657  TIP3      3272            0.0000000000
     27190      3408  TIP3      H2             34.0800367508       -0.0921026679        8.8808023388  TIP3      3272            0.0000000000
     27191      3409  TIP3      OH2            36.2856445304        1.5992482192        6.9256526032  TIP3      3273            0.0000000000
     27192      3409  TIP3      H1             36.9927358298        0.9373678074        6.9215439744  TIP3      3273            0.0000000000
     27193      3409  TIP3      H2             36.8175920424        2.4063471182        7.1567694323  TIP3      3273            0.0000000000
     27194      3410  TIP3      OH2            21.9324669982        0.4244523266        6.6830081527  TIP3      3274            0.0000000000
     27195      3410  TIP3      H1             21.1792436867        0.4041822833        6.0628986847  TIP3      3274            0.0000000000
     27196      3410  TIP3      H2             22.6386372550        0.0337986429        6.1054659366  TIP3      3274            0.0000000000
     27197      3411  TIP3      OH2            20.3800094919        0.9221280177        2.9553588679  TIP3      3275            0.0000000000
     27198      3411  TIP3      H1             21.0619462311        1.4188828165        2.4545566077  TIP3      3275            0.0000000000
     27199      3411  TIP3      H2             19.8806077597        1.6476669313        3.3860451607  TIP3      3275            0.0000000000
     27200      3412  TIP3      OH2            26.0347844155        0.3003723404        6.6991921629  TIP3      3276            0.0000000000
     27201      3412  TIP3      H1             26.9200466427        0.6664156688        6.7913208216  TIP3      3276            0.0000000000
     27202      3412  TIP3      H2             26.0463384560       -0.4385160703        7.3380406873  TIP3      3276            0.0000000000
     27203      3413  TIP3      OH2            31.8576584679        0.9182874135        7.7976221250  TIP3      3277            0.0000000000
     27204      3413  TIP3      H1             31.2310844106        1.3112759306        7.1607420854  TIP3      3277            0.0000000000
     27205      3413  TIP3      H2             31.3177424850        0.3320107984        8.3633527077  TIP3      3277            0.0000000000
     27206      3414  TIP3      OH2            33.0466418111        1.6251485676        3.9416603961  TIP3      3278            0.0000000000
     27207      3414  TIP3      H1             32.3256129441        2.2377022597        3.6713074273  TIP3      3278            0.0000000000
     27208      3414  TIP3      H2             32.5748890710        1.0983102755        4.6116133053  TIP3      3278            0.0000000000
     27209      3415  TIP3      OH2            20.2793709094       16.7667755840        3.8498793323  TIP3      3279            0.0000000000
     27210      3415  TIP3      H1             19.4561208524       16.6970194701        3.3282230082  TIP3      3279            0.0000000000
     27211      3415  TIP3      H2             20.5434163073       17.6581029341        3.5519808787  TIP3      3279            0.0000000000
     27212      3416  TIP3      OH2            22.2026742419        2.3534292149        1.6200059374  TIP3      3280            0.0000000000
     27213      3416  TIP3      H1             22.4291267775        2.5672582565        0.6960575053  TIP3      3280            0.0000000000
     27214      3416  TIP3      H2             23.0788361247        2.3177005116        2.0590432774  TIP3      3280            0.0000000000
     27215      3417  TIP3      OH2            27.2015661615        2.9937805169        3.8847015988  TIP3      3281            0.0000000000
     27216      3417  TIP3      H1             27.7787210625        2.3254488429        4.2953675693  TIP3      3281            0.0000000000
     27217      3417  TIP3      H2             27.4820008957        3.7708268438        4.4194140170  TIP3      3281            0.0000000000
     27218      3418  TIP3      OH2            29.5610058472       18.5485140406        1.9287994090  TIP3      3282            0.0000000000
     27219      3418  TIP3      H1             30.3751392393       18.8346593419        1.4844669176  TIP3      3282            0.0000000000
     27220      3418  TIP3      H2             29.6355136350       17.5832082970        1.7644982039  TIP3      3282            0.0000000000
     27221      3419  TIP3      OH2            35.9750963928       16.8376582495        4.9719661469  TIP3      3283            0.0000000000
     27222      3419  TIP3      H1             35.7129574185       16.0714824214        4.3964476987  TIP3      3283            0.0000000000
     27223      3419  TIP3      H2             35.8728042972       17.5575621991        4.3081153687  TIP3      3283            0.0000000000
     27224      3420  TIP3      OH2            21.0862944987        0.9422435734       16.3776542326  TIP3      3284            0.0000000000
     27225      3420  TIP3      H1             21.0323407896        0.0653404828       16.8058307612  TIP3      3284            0.0000000000
     27226      3420  TIP3      H2             21.8686351438        1.2630389301       16.8688220327  TIP3      3284            0.0000000000
     27227      3421  TIP3      OH2            23.6178554991        0.2355314234       17.5130698505  TIP3      3285            0.0000000000
     27228      3421  TIP3      H1             24.5698952293        0.4106206549       17.5829706935  TIP3      3285            0.0000000000
     27229      3421  TIP3      H2             23.4739754236       -0.4090530510       18.2312813253  TIP3      3285            0.0000000000
     27230      3422  TIP3      OH2            22.3674192763       17.3430703137        0.7293180130  TIP3      3286            0.0000000000
     27231      3422  TIP3      H1             21.8264173131       17.7944384479        1.3954171416  TIP3      3286            0.0000000000
     27232      3422  TIP3      H2             22.6328595458       16.5328366314        1.1782017108  TIP3      3286            0.0000000000
     27233      3423  TIP3      OH2            32.1070143253       66.1149260113       18.6386996379  TIP3      3287            0.0000000000
     27234      3423  TIP3      H1             31.5848502069       65.4368956280       18.1878437254  TIP3      3287            0.0000000000
     27235      3423  TIP3      H2             32.9560595881       66.0567617304       18.1460062207  TIP3      3287            0.0000000000
     27236      3424  TIP3      OH2            35.0973276139       15.9152690114       16.6425302883  TIP3      3288            0.0000000000
     27237      3424  TIP3      H1             34.3116878839       15.8795912178       16.0387239278  TIP3      3288            0.0000000000
     27238      3424  TIP3      H2             35.1280786496       16.8720110737       16.8179995548  TIP3      3288            0.0000000000
     27239      3425  TIP3      OH2            50.3988247876        9.9398044709        6.7472182091  TIP3      3289            0.0000000000
     27240      3425  TIP3      H1             50.3360774968       10.7923406813        7.2229811819  TIP3      3289            0.0000000000
     27241      3425  TIP3      H2             49.6724125002       10.0320838438        6.1119222277  TIP3      3289            0.0000000000
     27242      3426  TIP3      OH2            49.0013589784        8.8242555134        9.8479684401  TIP3      3290            0.0000000000
     27243      3426  TIP3      H1             48.8260175324        8.5619087655       10.7713708408  TIP3      3290            0.0000000000
     27244      3426  TIP3      H2             48.1358179647        8.6574166040        9.4285930387  TIP3      3290            0.0000000000
     27245      3427  TIP3      OH2            40.9819031223        8.9582862126       11.9502088129  TIP3      3291            0.0000000000
     27246      3427  TIP3      H1             41.0021845506        8.1859621867       12.5452945437  TIP3      3291            0.0000000000
     27247      3427  TIP3      H2             41.8835798234        9.3120236800       12.0339711977  TIP3      3291            0.0000000000
     27248      3428  TIP3      OH2            52.2175112190       11.9499868341        8.7800047535  TIP3      3292            0.0000000000
     27249      3428  TIP3      H1             51.9592396262       11.2849269047        9.4343179097  TIP3      3292            0.0000000000
     27250      3428  TIP3      H2             52.7425916574       12.5525383988        9.3355266635  TIP3      3292            0.0000000000
     27251      3429  TIP3      OH2            42.2673347435       13.3151703146       10.2979041734  TIP3      3293            0.0000000000
     27252      3429  TIP3      H1             41.8368162718       12.4944601445        9.9906479935  TIP3      3293            0.0000000000
     27253      3429  TIP3      H2             43.1527829906       13.2098295930        9.8869725967  TIP3      3293            0.0000000000
     27254      3430  TIP3      OH2            38.5370601320        6.1933225135        5.5581477808  TIP3      3294            0.0000000000
     27255      3430  TIP3      H1             38.2413205093        6.8668678631        6.1846936638  TIP3      3294            0.0000000000
     27256      3430  TIP3      H2             37.8321645038        6.2192571519        4.8775497095  TIP3      3294            0.0000000000
     27257      3431  TIP3      OH2            38.7446388636        9.0695841975        8.0187480131  TIP3      3295            0.0000000000
     27258      3431  TIP3      H1             39.1025888137        8.1661308006        8.1328030386  TIP3      3295            0.0000000000
     27259      3431  TIP3      H2             39.5266075150        9.5899427358        7.7715026686  TIP3      3295            0.0000000000
     27260      3432  TIP3      OH2            49.4868908576       17.2666792515        8.5708842355  TIP3      3296            0.0000000000
     27261      3432  TIP3      H1             50.1666905990       16.7405579296        8.0816738909  TIP3      3296            0.0000000000
     27262      3432  TIP3      H2             49.1343758068       16.5800121715        9.1473949345  TIP3      3296            0.0000000000
     27263      3433  TIP3      OH2            46.6052582002       11.6422044014       11.0739247856  TIP3      3297            0.0000000000
     27264      3433  TIP3      H1             47.1628401441       11.5254066311       10.2861530256  TIP3      3297            0.0000000000
     27265      3433  TIP3      H2             47.2952734583       11.7507462873       11.7641042831  TIP3      3297            0.0000000000
     27266      3434  TIP3      OH2            55.3623239482        2.7612638617       11.2414944631  TIP3      3298            0.0000000000
     27267      3434  TIP3      H1             56.0358176216        3.3627378411       11.5834740512  TIP3      3298            0.0000000000
     27268      3434  TIP3      H2             55.7127757259        2.5585097799       10.3636296217  TIP3      3298            0.0000000000
     27269      3435  TIP3      OH2            50.3966279659        6.1175217830       11.3741545383  TIP3      3299            0.0000000000
     27270      3435  TIP3      H1             50.7744971012        5.2770295690       11.6763173845  TIP3      3299            0.0000000000
     27271      3435  TIP3      H2             50.4689139406        5.9961419881       10.3994847039  TIP3      3299            0.0000000000
     27272      3436  TIP3      OH2            43.5474443849        4.0308605801        8.1083882159  TIP3      3300            0.0000000000
     27273      3436  TIP3      H1             43.7187351065        4.7417900426        7.4490429463  TIP3      3300            0.0000000000
     27274      3436  TIP3      H2             43.1086583316        3.3680879105        7.5351424849  TIP3      3300            0.0000000000
     27275      3437  TIP3      OH2            51.0921760745        3.9884180470        6.7634861151  TIP3      3301            0.0000000000
     27276      3437  TIP3      H1             51.4677646819        3.9774590166        7.6770059427  TIP3      3301            0.0000000000
     27277      3437  TIP3      H2             51.7650382711        4.5153195417        6.2995826509  TIP3      3301            0.0000000000
     27278      3438  TIP3      OH2            39.6401104860        6.4070359780        8.7329768354  TIP3      3302            0.0000000000
     27279      3438  TIP3      H1             40.3649509338        6.2921520225        9.3751824564  TIP3      3302            0.0000000000
     27280      3438  TIP3      H2             40.0446545950        5.9881458465        7.9342822870  TIP3      3302            0.0000000000
     27281      3439  TIP3      OH2            44.6425836326        8.2082564203        8.2116302966  TIP3      3303            0.0000000000
     27282      3439  TIP3      H1             45.4452994921        7.7749146363        8.5672281912  TIP3      3303            0.0000000000
     27283      3439  TIP3      H2             44.3546790784        7.4784671788        7.6212367479  TIP3      3303            0.0000000000
     27284      3440  TIP3      OH2            56.0463526451        4.3987577351       13.8196322869  TIP3      3304            0.0000000000
     27285      3440  TIP3      H1             55.4983317267        5.1100900689       13.4213317334  TIP3      3304            0.0000000000
     27286      3440  TIP3      H2             55.9375746346        4.6074847793       14.7626197597  TIP3      3304            0.0000000000
     27287      3441  TIP3      OH2            42.3386211854        3.1194197666       12.0921420642  TIP3      3305            0.0000000000
     27288      3441  TIP3      H1             41.8109226684        3.5116242851       11.3675372859  TIP3      3305            0.0000000000
     27289      3441  TIP3      H2             41.6563344014        2.8149172361       12.7225092165  TIP3      3305            0.0000000000
     27290      3442  TIP3      OH2            49.2303599844       12.3577509539        5.6539397506  TIP3      3306            0.0000000000
     27291      3442  TIP3      H1             49.1024795473       12.4190321230        4.6904043412  TIP3      3306            0.0000000000
     27292      3442  TIP3      H2             48.7658477275       13.1745512091        5.9492991815  TIP3      3306            0.0000000000
     27293      3443  TIP3      OH2            44.3469063314       10.6228988315       12.2761856584  TIP3      3307            0.0000000000
     27294      3443  TIP3      H1             43.7387799270       11.3308023227       12.5982417817  TIP3      3307            0.0000000000
     27295      3443  TIP3      H2             45.0592390101       11.1484935597       11.8468260321  TIP3      3307            0.0000000000
     27296      3444  TIP3      OH2            52.7888148846        4.2891084873        8.9097289545  TIP3      3308            0.0000000000
     27297      3444  TIP3      H1             53.0176086875        3.3552656105        9.0687687007  TIP3      3308            0.0000000000
     27298      3444  TIP3      H2             53.2181703141        4.6924654504        9.7023567970  TIP3      3308            0.0000000000
     27299      3445  TIP3      OH2            41.9380451964        5.1125556419       10.0888072911  TIP3      3309            0.0000000000
     27300      3445  TIP3      H1             42.6247035212        5.5916311097       10.6121007671  TIP3      3309            0.0000000000
     27301      3445  TIP3      H2             42.4641954302        4.8975348681        9.2795319882  TIP3      3309            0.0000000000
     27302      3446  TIP3      OH2            43.1317242311       12.8519154896       13.0615645792  TIP3      3310            0.0000000000
     27303      3446  TIP3      H1             42.9936641538       13.5005453390       12.3460309390  TIP3      3310            0.0000000000
     27304      3446  TIP3      H2             42.2231851378       12.8085726185       13.4428039383  TIP3      3310            0.0000000000
     27305      3447  TIP3      OH2            38.9789994076       12.0340284870        4.1376201302  TIP3      3311            0.0000000000
     27306      3447  TIP3      H1             38.9694348884       12.4607588763        3.2576142351  TIP3      3311            0.0000000000
     27307      3447  TIP3      H2             39.0053625168       12.8097564413        4.7347217775  TIP3      3311            0.0000000000
     27308      3448  TIP3      OH2            52.8633586228       14.0001455200       10.6615230567  TIP3      3312            0.0000000000
     27309      3448  TIP3      H1             51.9390166573       14.2486873223       10.8933075589  TIP3      3312            0.0000000000
     27310      3448  TIP3      H2             53.1470272410       14.8642774535       10.3149344549  TIP3      3312            0.0000000000
     27311      3449  TIP3      OH2            53.1182542964        3.0658933094       12.7095046500  TIP3      3313            0.0000000000
     27312      3449  TIP3      H1             52.4122908747        2.9680115723       12.0334854070  TIP3      3313            0.0000000000
     27313      3449  TIP3      H2             53.9225665792        3.0078623722       12.1451637255  TIP3      3313            0.0000000000
     27314      3450  TIP3      OH2            46.1313929460        0.8265013425       10.1218319633  TIP3      3314            0.0000000000
     27315      3450  TIP3      H1             46.0190646745       -0.1382183850       10.0850192437  TIP3      3314            0.0000000000
     27316      3450  TIP3      H2             45.2125915010        1.1636852864       10.1568288327  TIP3      3314            0.0000000000
     27317      3451  TIP3      OH2            51.3066016728       15.8174394798        7.2293076122  TIP3      3315            0.0000000000
     27318      3451  TIP3      H1             51.5304321722       14.9987393707        6.7382690977  TIP3      3315            0.0000000000
     27319      3451  TIP3      H2             52.1059089223       16.3566426104        7.0300360407  TIP3      3315            0.0000000000
     27320      3452  TIP3      OH2            52.1095505145       13.6122172059        5.8332976756  TIP3      3316            0.0000000000
     27321      3452  TIP3      H1             52.0823740433       12.8724487319        5.1969292585  TIP3      3316            0.0000000000
     27322      3452  TIP3      H2             52.0228437936       13.1243319508        6.6698938590  TIP3      3316            0.0000000000
     27323      3453  TIP3      OH2            53.7034245841       12.3845428078       14.5693941608  TIP3      3317            0.0000000000
     27324      3453  TIP3      H1             53.9221316970       11.6273423080       13.9766624203  TIP3      3317            0.0000000000
     27325      3453  TIP3      H2             53.9249124372       13.1347865540       13.9683919106  TIP3      3317            0.0000000000
     27326      3454  TIP3      OH2            48.3515837459        9.0851792842        3.9599388787  TIP3      3318            0.0000000000
     27327      3454  TIP3      H1             47.7120228828        9.8301568043        3.9525531076  TIP3      3318            0.0000000000
     27328      3454  TIP3      H2             49.1715776446        9.5129393124        3.6681059855  TIP3      3318            0.0000000000
     27329      3455  TIP3      OH2            48.3281984352        8.2769597090        1.3684554294  TIP3      3319            0.0000000000
     27330      3455  TIP3      H1             48.8450725051        8.4233390826        2.1949912798  TIP3      3319            0.0000000000
     27331      3455  TIP3      H2             48.5408450533        7.3520851571        1.1808686957  TIP3      3319            0.0000000000
     27332      3456  TIP3      OH2            55.7250452992        8.6484985755       12.3465999939  TIP3      3320            0.0000000000
     27333      3456  TIP3      H1             55.0867986614        9.3834395875       12.4121750037  TIP3      3320            0.0000000000
     27334      3456  TIP3      H2             56.3675873015        9.0840812308       11.7470740974  TIP3      3320            0.0000000000
     27335      3457  TIP3      OH2            52.4108300551        8.8803337741        5.0714876142  TIP3      3321            0.0000000000
     27336      3457  TIP3      H1             51.7172392878        9.2584361877        5.6571422175  TIP3      3321            0.0000000000
     27337      3457  TIP3      H2             53.0624421232        8.5605094166        5.7428309763  TIP3      3321            0.0000000000
     27338      3458  TIP3      OH2            51.5585621485        7.5954043298       14.6151753747  TIP3      3322            0.0000000000
     27339      3458  TIP3      H1             51.5288777469        8.4252269144       15.1236522619  TIP3      3322            0.0000000000
     27340      3458  TIP3      H2             50.7863656213        7.7290753851       14.0373358367  TIP3      3322            0.0000000000
     27341      3459  TIP3      OH2            43.1141940035        9.8699367385        6.7885176059  TIP3      3323            0.0000000000
     27342      3459  TIP3      H1             43.1481379349        9.4539828219        5.9015246606  TIP3      3323            0.0000000000
     27343      3459  TIP3      H2             43.7297804064        9.3062514956        7.3165211341  TIP3      3323            0.0000000000
     27344      3460  TIP3      OH2            44.8391644993       13.1596776395        9.5868148977  TIP3      3324            0.0000000000
     27345      3460  TIP3      H1             45.0664213799       12.8825347684        8.6802191748  TIP3      3324            0.0000000000
     27346      3460  TIP3      H2             45.5016537176       12.7043793436       10.1483703636  TIP3      3324            0.0000000000
     27347      3461  TIP3      OH2            43.5393006139        8.7527927815       10.5733167469  TIP3      3325            0.0000000000
     27348      3461  TIP3      H1             43.9604016148        8.7880586593        9.6861737368  TIP3      3325            0.0000000000
     27349      3461  TIP3      H2             44.0855672153        9.3758303453       11.1056355875  TIP3      3325            0.0000000000
     27350      3462  TIP3      OH2            50.3549088220       14.5001218636       11.5308282574  TIP3      3326            0.0000000000
     27351      3462  TIP3      H1             49.6978146659       14.9728079210       12.0553269820  TIP3      3326            0.0000000000
     27352      3462  TIP3      H2             50.1583239588       13.5714455916       11.7711384941  TIP3      3326            0.0000000000
     27353      3463  TIP3      OH2            44.5248844272       13.1449579361       15.4760253561  TIP3      3327            0.0000000000
     27354      3463  TIP3      H1             43.8292848270       13.7769858599       15.7443441054  TIP3      3327            0.0000000000
     27355      3463  TIP3      H2             44.1707291317       12.8939649205       14.5878583983  TIP3      3327            0.0000000000
     27356      3464  TIP3      OH2            50.7597152156        8.5493515350        2.9609031237  TIP3      3328            0.0000000000
     27357      3464  TIP3      H1             51.4254247116        8.5829042894        3.6838566406  TIP3      3328            0.0000000000
     27358      3464  TIP3      H2             51.1792798936        9.1051119758        2.2684523821  TIP3      3328            0.0000000000
     27359      3465  TIP3      OH2            41.6116422315        9.1477298368       14.9375479718  TIP3      3329            0.0000000000
     27360      3465  TIP3      H1             41.5544412365        9.8869944915       15.5813890588  TIP3      3329            0.0000000000
     27361      3465  TIP3      H2             40.6602878470        9.0092730423       14.7411000061  TIP3      3329            0.0000000000
     27362      3466  TIP3      OH2            48.2077509250       14.8089674775        6.3316305928  TIP3      3330            0.0000000000
     27363      3466  TIP3      H1             48.6473183412       15.1542559808        7.1151198240  TIP3      3330            0.0000000000
     27364      3466  TIP3      H2             47.8822683420       15.6062141623        5.8994541948  TIP3      3330            0.0000000000
     27365      3467  TIP3      OH2            42.6742436566       15.0038467447       16.1564690963  TIP3      3331            0.0000000000
     27366      3467  TIP3      H1             42.6283147929       15.3672622439       15.2410494788  TIP3      3331            0.0000000000
     27367      3467  TIP3      H2             41.7695805548       14.6580952116       16.2886577474  TIP3      3331            0.0000000000
     27368      3468  TIP3      OH2            54.3047797616        0.6476748857        2.9450692405  TIP3      3332            0.0000000000
     27369      3468  TIP3      H1             53.6547251024        1.2698081033        3.3086074501  TIP3      3332            0.0000000000
     27370      3468  TIP3      H2             54.8806892208        1.2427753555        2.4158912675  TIP3      3332            0.0000000000
     27371      3469  TIP3      OH2            42.3855544931        8.7760239411        4.3124159371  TIP3      3333            0.0000000000
     27372      3469  TIP3      H1             41.9928509746        9.6282397185        4.0029682373  TIP3      3333            0.0000000000
     27373      3469  TIP3      H2             41.6844811492        8.1355957888        4.1609648305  TIP3      3333            0.0000000000
     27374      3470  TIP3      OH2            55.7193689380       14.2167526353        1.0747254398  TIP3      3334            0.0000000000
     27375      3470  TIP3      H1             56.0810894856       15.0379492473        0.7037050979  TIP3      3334            0.0000000000
     27376      3470  TIP3      H2             56.5418293611       13.7206385098        1.2764269710  TIP3      3334            0.0000000000
     27377      3471  TIP3      OH2            38.6096622399       11.3322569966       13.6653301941  TIP3      3335            0.0000000000
     27378      3471  TIP3      H1             38.1300545422       11.4219258584       12.8206756925  TIP3      3335            0.0000000000
     27379      3471  TIP3      H2             39.1496802902       10.5486374962       13.4788653813  TIP3      3335            0.0000000000
     27380      3472  TIP3      OH2            38.4431462437       14.0927630445       10.1840723698  TIP3      3336            0.0000000000
     27381      3472  TIP3      H1             39.3863958800       13.9034392820       10.3012770179  TIP3      3336            0.0000000000
     27382      3472  TIP3      H2             38.3281350175       14.7721372215       10.8672335594  TIP3      3336            0.0000000000
     27383      3473  TIP3      OH2            56.4483930985       14.7444202615       16.1236442170  TIP3      3337            0.0000000000
     27384      3473  TIP3      H1             56.4981182283       13.7886085055       16.0048452380  TIP3      3337            0.0000000000
     27385      3473  TIP3      H2             55.5173999809       14.8051765633       16.4506450783  TIP3      3337            0.0000000000
     27386      3474  TIP3      OH2            47.1157708044       14.3148935865       15.0062495621  TIP3      3338            0.0000000000
     27387      3474  TIP3      H1             47.2328002589       15.2172398750       15.3614612226  TIP3      3338            0.0000000000
     27388      3474  TIP3      H2             46.1727823294       14.1166457737       15.2039078840  TIP3      3338            0.0000000000
     27389      3475  TIP3      OH2            48.0125789265       18.1204566628        4.4273789111  TIP3      3339            0.0000000000
     27390      3475  TIP3      H1             47.8186917641       18.3583542849        3.5014578129  TIP3      3339            0.0000000000
     27391      3475  TIP3      H2             47.9938370420       19.0083582623        4.8589419126  TIP3      3339            0.0000000000
     27392      3476  TIP3      OH2            41.5939510316       16.8049249678        6.6755945317  TIP3      3340            0.0000000000
     27393      3476  TIP3      H1             41.7599725292       16.3724443446        7.5465587815  TIP3      3340            0.0000000000
     27394      3476  TIP3      H2             40.7073108225       16.4838704555        6.4367055518  TIP3      3340            0.0000000000
     27395      3477  TIP3      OH2            51.0161166575       17.7529120246        1.6150218602  TIP3      3341            0.0000000000
     27396      3477  TIP3      H1             51.4873409715       16.9600037853        1.2960823514  TIP3      3341            0.0000000000
     27397      3477  TIP3      H2             51.0305195338       17.6179126297        2.5863938563  TIP3      3341            0.0000000000
     27398      3478  TIP3      OH2            50.7222356212       17.3412353601        4.3975079457  TIP3      3342            0.0000000000
     27399      3478  TIP3      H1             49.7485818733       17.4601597742        4.4912506737  TIP3      3342            0.0000000000
     27400      3478  TIP3      H2             50.8457717380       16.4669827894        4.8086918773  TIP3      3342            0.0000000000
     27401      3479  TIP3      OH2            53.3534834159        6.4303484250       16.5892264461  TIP3      3343            0.0000000000
     27402      3479  TIP3      H1             52.8723508002        6.7946211864       15.8247555044  TIP3      3343            0.0000000000
     27403      3479  TIP3      H2             53.2730587769        5.4839856101       16.4395572848  TIP3      3343            0.0000000000
     27404      3480  TIP3      OH2            40.8398633485       12.8873852068       14.3071844804  TIP3      3344            0.0000000000
     27405      3480  TIP3      H1             41.0706415632       12.5049989564       15.1783236171  TIP3      3344            0.0000000000
     27406      3480  TIP3      H2             40.0464292177       12.3560425944       14.0875845399  TIP3      3344            0.0000000000
     27407      3481  TIP3      OH2            43.6124207086        1.7003365022       10.2430110976  TIP3      3345            0.0000000000
     27408      3481  TIP3      H1             42.8004458263        1.6447382037        9.6867473788  TIP3      3345            0.0000000000
     27409      3481  TIP3      H2             43.3717857172        2.4810780716       10.7923749618  TIP3      3345            0.0000000000
     27410      3482  TIP3      OH2            47.5500492320        0.5376727089       14.6111681598  TIP3      3346            0.0000000000
     27411      3482  TIP3      H1             48.4831712702        0.3539799160       14.7822872338  TIP3      3346            0.0000000000
     27412      3482  TIP3      H2             47.3856700143        1.2505274411       15.2545591646  TIP3      3346            0.0000000000
     27413      3483  TIP3      OH2            51.2153237101        4.9836978739       15.2179844142  TIP3      3347            0.0000000000
     27414      3483  TIP3      H1             50.4962089973        4.6264000983       15.7969711836  TIP3      3347            0.0000000000
     27415      3483  TIP3      H2             51.0534242797        5.9474882100       15.1973666122  TIP3      3347            0.0000000000
     27416      3484  TIP3      OH2            52.0993078987        9.7541697183        1.0055958392  TIP3      3348            0.0000000000
     27417      3484  TIP3      H1             51.9493338045        9.9240353825        0.0625482385  TIP3      3348            0.0000000000
     27418      3484  TIP3      H2             53.0688519456        9.7708972629        1.0361105394  TIP3      3348            0.0000000000
     27419      3485  TIP3      OH2            48.0091370735        3.7287748442        1.1021397261  TIP3      3349            0.0000000000
     27420      3485  TIP3      H1             47.6494649731        3.8568543280        1.9924533473  TIP3      3349            0.0000000000
     27421      3485  TIP3      H2             47.5306094585        2.9291837981        0.8292593071  TIP3      3349            0.0000000000
     27422      3486  TIP3      OH2            43.9756902304        6.2379512150       11.6533741522  TIP3      3350            0.0000000000
     27423      3486  TIP3      H1             43.7120493830        6.4714135065       12.5655566869  TIP3      3350            0.0000000000
     27424      3486  TIP3      H2             43.7698646935        7.0835524652       11.2104383202  TIP3      3350            0.0000000000
     27425      3487  TIP3      OH2            43.7924716779        6.2050567563        6.5311638003  TIP3      3351            0.0000000000
     27426      3487  TIP3      H1             42.9229194154        6.6001356209        6.4090118295  TIP3      3351            0.0000000000
     27427      3487  TIP3      H2             44.0389532212        5.9936378607        5.5982183181  TIP3      3351            0.0000000000
     27428      3488  TIP3      OH2            49.2327040151        6.9247948170        5.3810590472  TIP3      3352            0.0000000000
     27429      3488  TIP3      H1             48.8954041219        7.6838665989        4.8407135066  TIP3      3352            0.0000000000
     27430      3488  TIP3      H2             49.9822875594        6.6310568362        4.8352283738  TIP3      3352            0.0000000000
     27431      3489  TIP3      OH2            48.1423333153        7.2730628664       16.8866414541  TIP3      3353            0.0000000000
     27432      3489  TIP3      H1             47.6262352665        6.4616722082       17.1116019964  TIP3      3353            0.0000000000
     27433      3489  TIP3      H2             48.8868243187        7.2065219140       17.5198719028  TIP3      3353            0.0000000000
     27434      3490  TIP3      OH2            50.3330385735        6.4576089587        8.5698279481  TIP3      3354            0.0000000000
     27435      3490  TIP3      H1             50.0753620966        7.3142510978        8.1800614537  TIP3      3354            0.0000000000
     27436      3490  TIP3      H2             50.2916427188        5.8733245656        7.7912885273  TIP3      3354            0.0000000000
     27437      3491  TIP3      OH2            40.9265966348        6.1785575288       13.4087856462  TIP3      3355            0.0000000000
     27438      3491  TIP3      H1             41.7769655250        6.6363444342       13.5630537564  TIP3      3355            0.0000000000
     27439      3491  TIP3      H2             41.1728039113        5.2484292786       13.2521811756  TIP3      3355            0.0000000000
     27440      3492  TIP3      OH2            44.3686170984        4.0296737445        0.8074534639  TIP3      3356            0.0000000000
     27441      3492  TIP3      H1             44.1359031713        3.4760542295        1.5812712998  TIP3      3356            0.0000000000
     27442      3492  TIP3      H2             44.0886449400        4.9271146264        1.0600663501  TIP3      3356            0.0000000000
     27443      3493  TIP3      OH2            38.0802432068        3.5609041728        7.2057636758  TIP3      3357            0.0000000000
     27444      3493  TIP3      H1             38.8382844973        3.5864356537        7.8087107951  TIP3      3357            0.0000000000
     27445      3493  TIP3      H2             38.3076381226        4.2852482971        6.6078147608  TIP3      3357            0.0000000000
     27446      3494  TIP3      OH2            38.6735648135        4.4328380068        2.3791709047  TIP3      3358            0.0000000000
     27447      3494  TIP3      H1             39.4277119878        4.7888950480        1.8724162928  TIP3      3358            0.0000000000
     27448      3494  TIP3      H2             38.2986801681        5.2761835454        2.6612728430  TIP3      3358            0.0000000000
     27449      3495  TIP3      OH2            49.0599444715        8.0213042716       12.6953142519  TIP3      3359            0.0000000000
     27450      3495  TIP3      H1             49.6532656849        7.3776032301       12.2399369125  TIP3      3359            0.0000000000
     27451      3495  TIP3      H2             48.5442964852        7.3926969848       13.2482874092  TIP3      3359            0.0000000000
     27452      3496  TIP3      OH2            46.4802382187        3.7688606232        7.8171258430  TIP3      3360            0.0000000000
     27453      3496  TIP3      H1             45.5755075263        3.6585433138        8.1621641162  TIP3      3360            0.0000000000
     27454      3496  TIP3      H2             47.0466206383        3.4391058972        8.5416668495  TIP3      3360            0.0000000000
     27455      3497  TIP3      OH2            40.7609933180        5.1491568469        6.6634827425  TIP3      3361            0.0000000000
     27456      3497  TIP3      H1             40.1333008231        5.4064262266        5.9483412368  TIP3      3361            0.0000000000
     27457      3497  TIP3      H2             41.1981451311        4.3588886561        6.2837000269  TIP3      3361            0.0000000000
     27458      3498  TIP3      OH2            44.3049292059        5.7591440098        3.9652891369  TIP3      3362            0.0000000000
     27459      3498  TIP3      H1             45.2604618100        5.8702415052        4.1102446360  TIP3      3362            0.0000000000
     27460      3498  TIP3      H2             44.1085350508        6.3155932363        3.1853669818  TIP3      3362            0.0000000000
     27461      3499  TIP3      OH2            50.8269126410        3.2492012880       11.1162938143  TIP3      3363            0.0000000000
     27462      3499  TIP3      H1             50.0362572800        3.5451944659       11.5981794396  TIP3      3363            0.0000000000
     27463      3499  TIP3      H2             50.4433580118        2.8469824776       10.3165430708  TIP3      3363            0.0000000000
     27464      3500  TIP3      OH2            43.3821414795        6.6624614607        1.4662246481  TIP3      3364            0.0000000000
     27465      3500  TIP3      H1             42.7153821279        6.6881785470        0.7572639274  TIP3      3364            0.0000000000
     27466      3500  TIP3      H2             44.1693684302        7.0561246302        1.0194178056  TIP3      3364            0.0000000000
     27467      3501  TIP3      OH2            53.5409637920       18.4890839263       17.4108526514  TIP3      3365            0.0000000000
     27468      3501  TIP3      H1             53.8658383687       18.6587662584       16.5090310471  TIP3      3365            0.0000000000
     27469      3501  TIP3      H2             54.3656650817       18.7423906277       17.8940357648  TIP3      3365            0.0000000000
     27470      3502  TIP3      OH2            41.2633300313       11.2538131713       16.6227373616  TIP3      3366            0.0000000000
     27471      3502  TIP3      H1             41.9304856340       11.5417896154       17.2940949929  TIP3      3366            0.0000000000
     27472      3502  TIP3      H2             40.4546133169       11.1719084217       17.1796228771  TIP3      3366            0.0000000000
     27473      3503  TIP3      OH2            46.8540692796        6.7142134333        9.2691747935  TIP3      3367            0.0000000000
     27474      3503  TIP3      H1             47.7705841164        6.4776893634        9.0574681518  TIP3      3367            0.0000000000
     27475      3503  TIP3      H2             46.6163098269        5.9744408165        9.8510246630  TIP3      3367            0.0000000000
     27476      3504  TIP3      OH2            42.0672092202        2.7745238966        6.1629082324  TIP3      3368            0.0000000000
     27477      3504  TIP3      H1             41.6555261043        1.9409079271        6.4785873298  TIP3      3368            0.0000000000
     27478      3504  TIP3      H2             42.5476900869        2.4998314454        5.3681637627  TIP3      3368            0.0000000000
     27479      3505  TIP3      OH2            46.4899654754        4.8011367852       11.7042431520  TIP3      3369            0.0000000000
     27480      3505  TIP3      H1             45.8370731486        5.5283916162       11.6571346287  TIP3      3369            0.0000000000
     27481      3505  TIP3      H2             47.1190498612        5.1382270741       12.3694693448  TIP3      3369            0.0000000000
     27482      3506  TIP3      OH2            46.7069013897       11.2575715055        4.0149828812  TIP3      3370            0.0000000000
     27483      3506  TIP3      H1             45.9552561128       10.7939391660        3.5883355616  TIP3      3370            0.0000000000
     27484      3506  TIP3      H2             46.2998381990       11.5036013630        4.8738726011  TIP3      3370            0.0000000000
     27485      3507  TIP3      OH2            54.0240849854       10.7627943699       12.5005536403  TIP3      3371            0.0000000000
     27486      3507  TIP3      H1             54.4661062877       11.2803531911       11.7805654022  TIP3      3371            0.0000000000
     27487      3507  TIP3      H2             53.1308351893       10.6879197879       12.1271467618  TIP3      3371            0.0000000000
     27488      3508  TIP3      OH2            50.7506841965        3.7107309830        1.3886852088  TIP3      3372            0.0000000000
     27489      3508  TIP3      H1             49.7946511864        3.7214368944        1.1686282540  TIP3      3372            0.0000000000
     27490      3508  TIP3      H2             50.8029665481        4.4796824048        1.9869889838  TIP3      3372            0.0000000000
     27491      3509  TIP3      OH2            47.4754014799       11.6521096639       14.7588405412  TIP3      3373            0.0000000000
     27492      3509  TIP3      H1             47.5252275448       11.4439126484       15.6994514189  TIP3      3373            0.0000000000
     27493      3509  TIP3      H2             47.3301866403       12.6133922643       14.8167183073  TIP3      3373            0.0000000000
     27494      3510  TIP3      OH2            51.0555532784        5.6764560775        3.4409602686  TIP3      3374            0.0000000000
     27495      3510  TIP3      H1             51.7729120342        5.7112657568        4.1052829516  TIP3      3374            0.0000000000
     27496      3510  TIP3      H2             51.2815632660        6.4277334878        2.8676923894  TIP3      3374            0.0000000000
     27497      3511  TIP3      OH2            41.5912432480       10.4881188778        9.2760818736  TIP3      3375            0.0000000000
     27498      3511  TIP3      H1             41.9578322320       10.4008267267        8.3760820977  TIP3      3375            0.0000000000
     27499      3511  TIP3      H2             42.0386180585        9.7896152723        9.7900902641  TIP3      3375            0.0000000000
     27500      3512  TIP3      OH2            48.7140535458       12.5330856325        2.5825013742  TIP3      3376            0.0000000000
     27501      3512  TIP3      H1             48.3569140240       13.3954262574        2.8991273182  TIP3      3376            0.0000000000
     27502      3512  TIP3      H2             48.0360863252       11.9035112211        2.9006476043  TIP3      3376            0.0000000000
     27503      3513  TIP3      OH2            39.0860525734        8.4554185273       14.3407178802  TIP3      3377            0.0000000000
     27504      3513  TIP3      H1             38.3657669376        8.2450969267       14.9701932541  TIP3      3377            0.0000000000
     27505      3513  TIP3      H2             38.5930943146        8.4005540805       13.4905576122  TIP3      3377            0.0000000000
     27506      3514  TIP3      OH2            45.9731644137        8.5957894675       16.2583575961  TIP3      3378            0.0000000000
     27507      3514  TIP3      H1             45.4590728530        7.9865272442       16.8015213269  TIP3      3378            0.0000000000
     27508      3514  TIP3      H2             46.8420993573        8.1382152495       16.2821396654  TIP3      3378            0.0000000000
     27509      3515  TIP3      OH2            50.4736295937       13.8248054262       15.1338500456  TIP3      3379            0.0000000000
     27510      3515  TIP3      H1             49.7946623797       14.1271746299       14.5215461842  TIP3      3379            0.0000000000
     27511      3515  TIP3      H2             50.1906278280       14.2418782267       15.9692114051  TIP3      3379            0.0000000000
     27512      3516  TIP3      OH2            55.6822071899        6.2269138050        3.6387228430  TIP3      3380            0.0000000000
     27513      3516  TIP3      H1             55.3775557837        5.8723050086        2.7870400971  TIP3      3380            0.0000000000
     27514      3516  TIP3      H2             55.8784024941        7.1519618567        3.3784592681  TIP3      3380            0.0000000000
     27515      3517  TIP3      OH2            56.1672875699       11.8194692232       15.7269819819  TIP3      3381            0.0000000000
     27516      3517  TIP3      H1             55.2457256564       11.8800490001       15.3863789862  TIP3      3381            0.0000000000
     27517      3517  TIP3      H2             56.6729328225       11.7152042968       14.8866480173  TIP3      3381            0.0000000000
     27518      3518  TIP3      OH2            54.2170239089       14.7913231060        3.3568531612  TIP3      3382            0.0000000000
     27519      3518  TIP3      H1             54.1080936680       13.8988526262        3.6984352998  TIP3      3382            0.0000000000
     27520      3518  TIP3      H2             54.7045411645       14.6612604644        2.5190462070  TIP3      3382            0.0000000000
     27521      3519  TIP3      OH2            51.5539743132        9.9077435147       10.6088810316  TIP3      3383            0.0000000000
     27522      3519  TIP3      H1             50.7113268991        9.5202605387       10.2927320721  TIP3      3383            0.0000000000
     27523      3519  TIP3      H2             52.1834299157        9.2418820657       10.2793761336  TIP3      3383            0.0000000000
     27524      3520  TIP3      OH2            43.8422556414       14.1959184683        6.7311691403  TIP3      3384            0.0000000000
     27525      3520  TIP3      H1             44.1578209433       15.1085378004        6.5457967861  TIP3      3384            0.0000000000
     27526      3520  TIP3      H2             42.9617988921       14.2596394501        6.3404033533  TIP3      3384            0.0000000000
     27527      3521  TIP3      OH2            39.6842655584        9.3118587886        1.3361584807  TIP3      3385            0.0000000000
     27528      3521  TIP3      H1             40.1813887458        9.8372395115        1.9929325655  TIP3      3385            0.0000000000
     27529      3521  TIP3      H2             38.7624402623        9.3393093967        1.6722355170  TIP3      3385            0.0000000000
     27530      3522  TIP3      OH2            45.1395129996       11.7152041478        6.4273992759  TIP3      3386            0.0000000000
     27531      3522  TIP3      H1             44.6759837327       12.5805456208        6.4513744941  TIP3      3386            0.0000000000
     27532      3522  TIP3      H2             44.5025036544       11.1204877654        6.8708106786  TIP3      3386            0.0000000000
     27533      3523  TIP3      OH2            46.0365681174       15.8327586000       13.0398492031  TIP3      3387            0.0000000000
     27534      3523  TIP3      H1             46.6015596162       16.5665309971       12.7343941264  TIP3      3387            0.0000000000
     27535      3523  TIP3      H2             46.6241704078       15.3978544233       13.6875501543  TIP3      3387            0.0000000000
     27536      3524  TIP3      OH2            44.1676210736       16.8381533133        5.8294677781  TIP3      3388            0.0000000000
     27537      3524  TIP3      H1             43.2225811570       16.9207662840        6.0748589650  TIP3      3388            0.0000000000
     27538      3524  TIP3      H2             44.4810482041       17.7135544098        6.1513718457  TIP3      3388            0.0000000000
     27539      3525  TIP3      OH2            49.0115886604       11.9178355538       12.2901884862  TIP3      3389            0.0000000000
     27540      3525  TIP3      H1             48.7617469591       11.5624556253       13.1776999246  TIP3      3389            0.0000000000
     27541      3525  TIP3      H2             49.5579706042       11.1971342284       11.9447966354  TIP3      3389            0.0000000000
     27542      3526  TIP3      OH2            51.9616674941       12.9887454869        1.8205044844  TIP3      3390            0.0000000000
     27543      3526  TIP3      H1             52.1168527737       12.4656144734        2.6338104439  TIP3      3390            0.0000000000
     27544      3526  TIP3      H2             51.0312672843       12.7373254854        1.6793635043  TIP3      3390            0.0000000000
     27545      3527  TIP3      OH2            52.3834136025       16.1948893758       14.8202614213  TIP3      3391            0.0000000000
     27546      3527  TIP3      H1             51.4674940732       15.8792128848       14.6964835410  TIP3      3391            0.0000000000
     27547      3527  TIP3      H2             52.4323651030       16.9108049467       14.1493017785  TIP3      3391            0.0000000000
     27548      3528  TIP3      OH2            56.2006848877       17.2230145735        1.9004903361  TIP3      3392            0.0000000000
     27549      3528  TIP3      H1             56.7281834992       17.8595498513        1.3939542195  TIP3      3392            0.0000000000
     27550      3528  TIP3      H2             55.4885904247       17.7737960594        2.2780149072  TIP3      3392            0.0000000000
     27551      3529  TIP3      OH2            39.9550619926        3.5082151578       13.9822792722  TIP3      3393            0.0000000000
     27552      3529  TIP3      H1             39.2094487520        4.0637735683       13.6751753115  TIP3      3393            0.0000000000
     27553      3529  TIP3      H2             39.5198893501        2.8939498892       14.5857135593  TIP3      3393            0.0000000000
     27554      3530  TIP3      OH2            52.7053097996       11.4274970432        4.0256047064  TIP3      3394            0.0000000000
     27555      3530  TIP3      H1             52.5490708069       10.5016783744        4.2993189626  TIP3      3394            0.0000000000
     27556      3530  TIP3      H2             53.6777105827       11.4540805877        4.0562369749  TIP3      3394            0.0000000000
     27557      3531  TIP3      OH2            39.8507401829       15.2320936486       12.3517477073  TIP3      3395            0.0000000000
     27558      3531  TIP3      H1             40.5744265160       14.7472484696       12.7811316924  TIP3      3395            0.0000000000
     27559      3531  TIP3      H2             39.4751147020       15.7687308382       13.0690213205  TIP3      3395            0.0000000000
     27560      3532  TIP3      OH2            44.5807970502       13.4912904179        2.4352278814  TIP3      3396            0.0000000000
     27561      3532  TIP3      H1             45.2650811632       12.9418802509        2.8462582683  TIP3      3396            0.0000000000
     27562      3532  TIP3      H2             44.7829959461       14.3949681127        2.7874256645  TIP3      3396            0.0000000000
     27563      3533  TIP3      OH2            41.1867695805       10.9274012456        2.9961274466  TIP3      3397            0.0000000000
     27564      3533  TIP3      H1             40.5553961702       11.3050207251        3.6466055991  TIP3      3397            0.0000000000
     27565      3533  TIP3      H2             41.5109042032       11.7345787949        2.5442025632  TIP3      3397            0.0000000000
     27566      3534  TIP3      OH2            49.4064718782        3.3941150355       13.4816470736  TIP3      3398            0.0000000000
     27567      3534  TIP3      H1             50.3784291058        3.4067135809       13.5654877402  TIP3      3398            0.0000000000
     27568      3534  TIP3      H2             49.1444842096        2.5653530030       13.8916317357  TIP3      3398            0.0000000000
     27569      3535  TIP3      OH2            49.6112834242        3.2640667976        4.5974600422  TIP3      3399            0.0000000000
     27570      3535  TIP3      H1             49.8076171904        4.0429395000        4.0575242671  TIP3      3399            0.0000000000
     27571      3535  TIP3      H2             50.1929339405        3.4359192270        5.3786892943  TIP3      3399            0.0000000000
     27572      3536  TIP3      OH2            47.7632862087       15.0146667516        3.2861633512  TIP3      3400            0.0000000000
     27573      3536  TIP3      H1             47.0245954650       15.5367166412        3.6305947495  TIP3      3400            0.0000000000
     27574      3536  TIP3      H2             48.1475990492       15.5909850083        2.5864773935  TIP3      3400            0.0000000000
     27575      3537  TIP3      OH2            47.0435807319        5.1360090818        5.5370027652  TIP3      3401            0.0000000000
     27576      3537  TIP3      H1             47.7976924979        5.7503531204        5.6821001833  TIP3      3401            0.0000000000
     27577      3537  TIP3      H2             46.8578664435        4.7764520654        6.4382457645  TIP3      3401            0.0000000000
     27578      3538  TIP3      OH2            48.0845156701        5.9872617253       14.1528785169  TIP3      3402            0.0000000000
     27579      3538  TIP3      H1             48.0541264642        6.3478782255       15.0550556805  TIP3      3402            0.0000000000
     27580      3538  TIP3      H2             48.5956383930        5.1608228159       14.2479373610  TIP3      3402            0.0000000000
     27581      3539  TIP3      OH2            47.9615030318        1.7381319637        6.1062738332  TIP3      3403            0.0000000000
     27582      3539  TIP3      H1             47.5869394764        2.4430999099        6.6662045973  TIP3      3403            0.0000000000
     27583      3539  TIP3      H2             48.5284959790        2.2752578915        5.5020604089  TIP3      3403            0.0000000000
     27584      3540  TIP3      OH2            44.9793186844       15.9665069940        3.3196207735  TIP3      3404            0.0000000000
     27585      3540  TIP3      H1             45.1768762772       16.8082022305        2.8496437977  TIP3      3404            0.0000000000
     27586      3540  TIP3      H2             44.5976376965       16.3475599311        4.1380709167  TIP3      3404            0.0000000000
     27587      3541  TIP3      OH2            43.5958805411        2.9813090552        3.3519419615  TIP3      3405            0.0000000000
     27588      3541  TIP3      H1             43.4677445894        3.9160603405        3.5772437812  TIP3      3405            0.0000000000
     27589      3541  TIP3      H2             44.5447712378        2.8903046436        3.5809619900  TIP3      3405            0.0000000000
     27590      3542  TIP3      OH2            53.7670982317        3.7187643609       15.4179564257  TIP3      3406            0.0000000000
     27591      3542  TIP3      H1             52.8297192405        3.9758257046       15.5297846683  TIP3      3406            0.0000000000
     27592      3542  TIP3      H2             53.7695494066        3.5370194880       14.4507149191  TIP3      3406            0.0000000000
     27593      3543  TIP3      OH2            52.7752847930        7.3764518811        9.0844883184  TIP3      3407            0.0000000000
     27594      3543  TIP3      H1             51.9260278680        6.8906978047        9.0269447652  TIP3      3407            0.0000000000
     27595      3543  TIP3      H2             53.3102832731        6.7818123398        9.6500171819  TIP3      3407            0.0000000000
     27596      3544  TIP3      OH2            41.8922557025       13.3115017141        1.6965117268  TIP3      3408            0.0000000000
     27597      3544  TIP3      H1             42.6522574249       13.7140094177        2.1579397565  TIP3      3408            0.0000000000
     27598      3544  TIP3      H2             42.3766587314       12.7821157389        1.0340836098  TIP3      3408            0.0000000000
     27599      3545  TIP3      OH2            39.8746735499        6.5582938680        0.8646120052  TIP3      3409            0.0000000000
     27600      3545  TIP3      H1             40.0202437513        7.5015993044        1.0762189770  TIP3      3409            0.0000000000
     27601      3545  TIP3      H2             39.1030984078        6.6227769798        0.2720688283  TIP3      3409            0.0000000000
     27602      3546  TIP3      OH2            53.3634426948       16.7007135154       10.7541117287  TIP3      3410            0.0000000000
     27603      3546  TIP3      H1             53.2560396733       17.4399420952       10.1284827951  TIP3      3410            0.0000000000
     27604      3546  TIP3      H2             54.3404576925       16.6463314867       10.7166253768  TIP3      3410            0.0000000000
     27605      3547  TIP3      OH2            41.0923670702        1.1752766466        9.3227009699  TIP3      3411            0.0000000000
     27606      3547  TIP3      H1             40.8878883074        0.9427695831        8.3855079213  TIP3      3411            0.0000000000
     27607      3547  TIP3      H2             40.8522411955        0.3452506761        9.8064091687  TIP3      3411            0.0000000000
     27608      3548  TIP3      OH2            39.5234862301       14.6320326007        5.4531821345  TIP3      3412            0.0000000000
     27609      3548  TIP3      H1             38.8799481888       15.2237644023        5.8620754331  TIP3      3412            0.0000000000
     27610      3548  TIP3      H2             39.6980149436       15.1394719676        4.6354458109  TIP3      3412            0.0000000000
     27611      3549  TIP3      OH2            38.8836746254       17.7443583508       16.9425473542  TIP3      3413            0.0000000000
     27612      3549  TIP3      H1             39.2070815147       17.1135235510       17.6116371472  TIP3      3413            0.0000000000
     27613      3549  TIP3      H2             38.3346258886       17.1669823204       16.3983305820  TIP3      3413            0.0000000000
     27614      3550  TIP3      OH2            43.3885711345       16.6184536510       18.2731698650  TIP3      3414            0.0000000000
     27615      3550  TIP3      H1             44.2550754198       16.3162382061       18.5842743105  TIP3      3414            0.0000000000
     27616      3550  TIP3      H2             43.3519152893       16.1818726408       17.3952441126  TIP3      3414            0.0000000000
     27617      3551  TIP3      OH2            48.6521991767       16.0966192864        0.9969277732  TIP3      3415            0.0000000000
     27618      3551  TIP3      H1             47.9381110474       15.5968970592        0.5481581521  TIP3      3415            0.0000000000
     27619      3551  TIP3      H2             49.4187347569       15.8132768915        0.4817750426  TIP3      3415            0.0000000000
     27620      3552  TIP3      OH2            50.0613397586       15.2617391073       17.4745336889  TIP3      3416            0.0000000000
     27621      3552  TIP3      H1             49.7923649407       14.3643648240       17.7916775079  TIP3      3416            0.0000000000
     27622      3552  TIP3      H2             50.9769216564       15.3093859596       17.8381116619  TIP3      3416            0.0000000000
     27623      3553  TIP3      OH2            52.9396352641       15.6235465428        0.3192742276  TIP3      3417            0.0000000000
     27624      3553  TIP3      H1             52.6192464156       14.8491466102        0.8292500252  TIP3      3417            0.0000000000
     27625      3553  TIP3      H2             53.8793092380       15.5796373310        0.5766535115  TIP3      3417            0.0000000000
     27626      3554  TIP3      OH2            38.7615360423       10.7321172204       17.6387031430  TIP3      3418            0.0000000000
     27627      3554  TIP3      H1             38.3906341497        9.9811697494       18.1250547044  TIP3      3418            0.0000000000
     27628      3554  TIP3      H2             37.9637187553       11.1132467834       17.2231795172  TIP3      3418            0.0000000000
     27629      3555  TIP3      OH2            43.4545156535       11.2008255577        0.6009436705  TIP3      3419            0.0000000000
     27630      3555  TIP3      H1             44.0030840479       11.0182785071        1.3955108313  TIP3      3419            0.0000000000
     27631      3555  TIP3      H2             44.0614979471       10.9321896965       -0.1243114141  TIP3      3419            0.0000000000
     27632      3556  TIP3      OH2            45.6255268414       11.2500587204       16.9879735763  TIP3      3420            0.0000000000
     27633      3556  TIP3      H1             45.3486487017       11.8806457878       16.2790702225  TIP3      3420            0.0000000000
     27634      3556  TIP3      H2             45.6462292555       10.3653868664       16.5417507048  TIP3      3420            0.0000000000
     27635      3557  TIP3      OH2            51.2340181292       11.2049599661       14.8582389179  TIP3      3421            0.0000000000
     27636      3557  TIP3      H1             52.0948863014       11.6746872747       14.8640856927  TIP3      3421            0.0000000000
     27637      3557  TIP3      H2             50.6979453974       12.0053066122       15.0314938928  TIP3      3421            0.0000000000
     27638      3558  TIP3      OH2            40.4372888171        8.0408671309       17.8391246071  TIP3      3422            0.0000000000
     27639      3558  TIP3      H1             40.5440744471        7.4200767629       18.5864429629  TIP3      3422            0.0000000000
     27640      3558  TIP3      H2             40.1163934944        8.8277733321       18.2997691228  TIP3      3422            0.0000000000
     27641      3559  TIP3      OH2            44.8017115394        9.7863815868        2.5172083286  TIP3      3423            0.0000000000
     27642      3559  TIP3      H1             44.0639066694        9.2988395573        2.9310722184  TIP3      3423            0.0000000000
     27643      3559  TIP3      H2             45.1730649033        9.1110732027        1.9107834163  TIP3      3423            0.0000000000
     27644      3560  TIP3      OH2            43.2594765150        7.4019383175       13.9889007037  TIP3      3424            0.0000000000
     27645      3560  TIP3      H1             42.7059251330        8.0986304181       14.4208227545  TIP3      3424            0.0000000000
     27646      3560  TIP3      H2             44.0927713932        7.9253682155       13.8456914146  TIP3      3424            0.0000000000
     27647      3561  TIP3      OH2            45.7274548317        7.8564531596        0.6073728504  TIP3      3425            0.0000000000
     27648      3561  TIP3      H1             45.8629617128        8.0777101019       -0.3306738135  TIP3      3425            0.0000000000
     27649      3561  TIP3      H2             46.6434036704        7.9983448012        0.9509297590  TIP3      3425            0.0000000000
     27650      3562  TIP3      OH2            49.1503661165       10.4671927984       18.0003018703  TIP3      3426            0.0000000000
     27651      3562  TIP3      H1             49.8248695105        9.9880041493       17.4807851099  TIP3      3426            0.0000000000
     27652      3562  TIP3      H2             48.3251137990        9.9998741900       17.7835245122  TIP3      3426            0.0000000000
     27653      3563  TIP3      OH2            54.9394240550       10.2896419924       84.8102769102  TIP3      3427            0.0000000000
     27654      3563  TIP3      H1             54.5327895898       10.3840801215       83.9340326546  TIP3      3427            0.0000000000
     27655      3563  TIP3      H2             55.1488982328       11.2036082067       85.0415942505  TIP3      3427            0.0000000000
     27656      3564  TIP3      OH2            44.2157285982        5.4337107176       15.5734584127  TIP3      3428            0.0000000000
     27657      3564  TIP3      H1             44.2812232176        4.6955436678       14.9117096579  TIP3      3428            0.0000000000
     27658      3564  TIP3      H2             44.0195305554        6.2072462230       15.0062582290  TIP3      3428            0.0000000000
     27659      3565  TIP3      OH2            44.6001460630        3.7594317227       13.5169899311  TIP3      3429            0.0000000000
     27660      3565  TIP3      H1             45.4099899006        4.0198511567       13.0384777958  TIP3      3429            0.0000000000
     27661      3565  TIP3      H2             43.9917745518        3.6461899093       12.7591078427  TIP3      3429            0.0000000000
     27662      3566  TIP3      OH2            45.6568137147        8.6654561162       13.4672583805  TIP3      3430            0.0000000000
     27663      3566  TIP3      H1             46.5356972120        8.9897845864       13.7058890357  TIP3      3430            0.0000000000
     27664      3566  TIP3      H2             45.2320868217        9.4887437764       13.1437732616  TIP3      3430            0.0000000000
     27665      3567  TIP3      OH2            50.2727545190        6.6389877609       18.4512485003  TIP3      3431            0.0000000000
     27666      3567  TIP3      H1             50.3522019694        5.7284688110       18.7569066183  TIP3      3431            0.0000000000
     27667      3567  TIP3      H2             51.1962916709        6.9065455805       18.3002283837  TIP3      3431            0.0000000000
     27668      3568  TIP3      OH2            51.8480529166        9.3148341076       16.8767997503  TIP3      3432            0.0000000000
     27669      3568  TIP3      H1             51.6442648652        9.9737549652       16.1849115743  TIP3      3432            0.0000000000
     27670      3568  TIP3      H2             52.8265137154        9.2958226483       16.8465974887  TIP3      3432            0.0000000000
     27671      3569  TIP3      OH2            42.2747402164        5.6167724518       17.3683606789  TIP3      3433            0.0000000000
     27672      3569  TIP3      H1             41.8187979424        4.8136283367       17.6881635152  TIP3      3433            0.0000000000
     27673      3569  TIP3      H2             43.0549839649        5.2547128741       16.8804064119  TIP3      3433            0.0000000000
     27674      3570  TIP3      OH2            44.4605918981        1.0662487998       13.6399675417  TIP3      3434            0.0000000000
     27675      3570  TIP3      H1             44.3129511993        1.9928682183       13.9488104386  TIP3      3434            0.0000000000
     27676      3570  TIP3      H2             44.8748264113        1.2438422461       12.7884132159  TIP3      3434            0.0000000000
     27677      3571  TIP3      OH2            46.5634346576        5.1565492936       16.9586135964  TIP3      3435            0.0000000000
     27678      3571  TIP3      H1             46.3161161569        4.3530092173       17.4569944449  TIP3      3435            0.0000000000
     27679      3571  TIP3      H2             45.8146946824        5.2502185201       16.3320189545  TIP3      3435            0.0000000000
     27680      3572  TIP3      OH2            49.5626072342        3.7106147181       16.8563533295  TIP3      3436            0.0000000000
     27681      3572  TIP3      H1             48.8313699084        3.5975710765       17.4832677026  TIP3      3436            0.0000000000
     27682      3572  TIP3      H2             50.3085495248        3.3266107633       17.3608729043  TIP3      3436            0.0000000000
     27683      3573  TIP3      OH2            51.5426204144        2.5575161974       18.4483090394  TIP3      3437            0.0000000000
     27684      3573  TIP3      H1             51.0467610118        1.7160579384       18.4626559440  TIP3      3437            0.0000000000
     27685      3573  TIP3      H2             51.4208514267        2.8351970391       19.3910032619  TIP3      3437            0.0000000000
     27686      3574  TIP3      OH2            40.4147483700        3.6844783855       17.7467151706  TIP3      3438            0.0000000000
     27687      3574  TIP3      H1             40.4940120721        2.8261594453       17.2712638882  TIP3      3438            0.0000000000
     27688      3574  TIP3      H2             40.7182743485        3.3964456520       18.6417539106  TIP3      3438            0.0000000000
     27689      3575  TIP3      OH2            45.2647408705        0.9337822159       16.2075917987  TIP3      3439            0.0000000000
     27690      3575  TIP3      H1             45.5669135211        0.1054633288       16.6120174420  TIP3      3439            0.0000000000
     27691      3575  TIP3      H2             45.4292442719        0.7235817870       15.2645073351  TIP3      3439            0.0000000000
     27692      3576  TIP3      OH2            46.2909900970        2.5291351469       18.0457424983  TIP3      3440            0.0000000000
     27693      3576  TIP3      H1             45.8594020296        2.0112705846       17.3256563838  TIP3      3440            0.0000000000
     27694      3576  TIP3      H2             45.4933137480        2.7379749704       18.5801889473  TIP3      3440            0.0000000000
     27695      3577  TIP3      OH2            45.3400783502       18.3587126844        2.2551432666  TIP3      3441            0.0000000000
     27696      3577  TIP3      H1             46.1785906029       18.6662968281        1.8719977051  TIP3      3441            0.0000000000
     27697      3577  TIP3      H2             44.7730172301       19.1147705150        2.0863026477  TIP3      3441            0.0000000000
     27698      3578  TIP3      OH2            38.9913005449       12.8391558254        1.4490184190  TIP3      3442            0.0000000000
     27699      3578  TIP3      H1             39.9524377292       13.0359617528        1.4170475476  TIP3      3442            0.0000000000
     27700      3578  TIP3      H2             38.8244404688       12.6474702873        0.5124377903  TIP3      3442            0.0000000000
     27701      3579  TIP3      OH2            37.9444275437       18.2175691068        6.1408982713  TIP3      3443            0.0000000000
     27702      3579  TIP3      H1             37.1999988166       17.6881642381        5.7760951867  TIP3      3443            0.0000000000
     27703      3579  TIP3      H2             38.1331324900       17.7162607717        6.9591322950  TIP3      3443            0.0000000000
     27704      3580  TIP3      OH2            38.4546409119       16.5124579999        8.2170638924  TIP3      3444            0.0000000000
     27705      3580  TIP3      H1             38.0964303461       15.6167739495        8.3125336151  TIP3      3444            0.0000000000
     27706      3580  TIP3      H2             38.2972865616       16.8261585534        9.1313141928  TIP3      3444            0.0000000000
     27707      3581  TIP3      OH2            56.0459151938       17.1785201624       10.6501869524  TIP3      3445            0.0000000000
     27708      3581  TIP3      H1             56.3790680737       17.1461353236       11.5595815266  TIP3      3445            0.0000000000
     27709      3581  TIP3      H2             56.3877794513       18.0274338218       10.3407980574  TIP3      3445            0.0000000000
     27710      3582  TIP3      OH2            55.7233881808       16.7963601182       13.8920311420  TIP3      3446            0.0000000000
     27711      3582  TIP3      H1             55.3287068725       16.0258930146       13.4303464321  TIP3      3446            0.0000000000
     27712      3582  TIP3      H2             56.0329332238       16.3764678182       14.7152312507  TIP3      3446            0.0000000000
     27713      3583  TIP3      OH2            54.3509205833       12.3869358797       19.0206249568  TIP3      3447            0.0000000000
     27714      3583  TIP3      H1             53.4649312347       12.6904663334       19.3040585280  TIP3      3447            0.0000000000
     27715      3583  TIP3      H2             54.9445439382       12.9635395043       19.5468896325  TIP3      3447            0.0000000000
     27716      3584  TIP3      OH2            55.6042247634       10.9075125589        3.9337450573  TIP3      3448            0.0000000000
     27717      3584  TIP3      H1             56.4182259993       11.4045443709        4.1512959440  TIP3      3448            0.0000000000
     27718      3584  TIP3      H2             55.5452299295       10.2990142286        4.7081270332  TIP3      3448            0.0000000000
     27719      3585  TIP3      OH2            56.0215962455        9.0422485425        6.0444043686  TIP3      3449            0.0000000000
     27720      3585  TIP3      H1             55.3624380447        8.4928754247        6.5342797449  TIP3      3449            0.0000000000
     27721      3585  TIP3      H2             56.7144246169        9.1610793936        6.7219349560  TIP3      3449            0.0000000000
     27722      3586  TIP3      OH2            55.5163823849       11.7270324523       10.6415845351  TIP3      3450            0.0000000000
     27723      3586  TIP3      H1             56.2269005640       11.0687199331       10.4803031966  TIP3      3450            0.0000000000
     27724      3586  TIP3      H2             55.9476548271       12.5622973833       10.3888422396  TIP3      3450            0.0000000000
     27725      3587  TIP3      OH2            54.1808540763       14.6650820749       13.1572428850  TIP3      3451            0.0000000000
     27726      3587  TIP3      H1             53.5576054087       15.1207096922       13.7567330623  TIP3      3451            0.0000000000
     27727      3587  TIP3      H2             53.6254774784       14.4144334948       12.3859929518  TIP3      3451            0.0000000000
     27728      3588  TIP3      OH2            56.1599257439        8.7082163187        2.3736821776  TIP3      3452            0.0000000000
     27729      3588  TIP3      H1             55.5326494915        8.7813284876        1.6339818986  TIP3      3452            0.0000000000
     27730      3588  TIP3      H2             55.9727978905        9.5255354220        2.8957431471  TIP3      3452            0.0000000000
     27731      3589  TIP3      OH2            53.5260470502        6.2065807618        1.0982102447  TIP3      3453            0.0000000000
     27732      3589  TIP3      H1             54.2246613568        6.4286455941        0.4511723227  TIP3      3453            0.0000000000
     27733      3589  TIP3      H2             53.5283625643        5.2292846824        0.9581206994  TIP3      3453            0.0000000000
     27734      3590  TIP3      OH2            54.0152061226        7.5544307879        6.8139935346  TIP3      3454            0.0000000000
     27735      3590  TIP3      H1             53.5867846451        6.7405623032        6.4953514479  TIP3      3454            0.0000000000
     27736      3590  TIP3      H2             53.6063850578        7.6478398449        7.7077856025  TIP3      3454            0.0000000000
     27737      3591  TIP3      OH2            38.6771545561        9.5430692555       10.7666693461  TIP3      3455            0.0000000000
     27738      3591  TIP3      H1             38.6832380495        9.3370957284        9.8089311888  TIP3      3455            0.0000000000
     27739      3591  TIP3      H2             39.6409033000        9.5624829291       10.9849900411  TIP3      3455            0.0000000000
     27740      3592  TIP3      OH2            54.6722106134        9.5572871214       16.2612845378  TIP3      3456            0.0000000000
     27741      3592  TIP3      H1             55.1078093342        8.6800032192       16.4064545915  TIP3      3456            0.0000000000
     27742      3592  TIP3      H2             55.4478589531       10.1509808829       16.1526940261  TIP3      3456            0.0000000000
     27743      3593  TIP3      OH2            55.9491317495        7.1184326888       16.5546860574  TIP3      3457            0.0000000000
     27744      3593  TIP3      H1             55.0405741497        6.7284999617       16.5914313230  TIP3      3457            0.0000000000
     27745      3593  TIP3      H2             56.5235738425        6.3319750311       16.5620020901  TIP3      3457            0.0000000000
     27746      3594  TIP3      OH2            53.8693875407        3.6761142418        0.2480671266  TIP3      3458            0.0000000000
     27747      3594  TIP3      H1             54.4956822418        2.9835203825        0.5392438530  TIP3      3458            0.0000000000
     27748      3594  TIP3      H2             53.0097651108        3.2169864221        0.3348429871  TIP3      3458            0.0000000000
     27749      3595  TIP3      OH2            53.1181325739        5.5681778589        5.1587134551  TIP3      3459            0.0000000000
     27750      3595  TIP3      H1             53.5538803555        4.6908182537        5.3179398214  TIP3      3459            0.0000000000
     27751      3595  TIP3      H2             53.7731407954        5.9473276280        4.5393487467  TIP3      3459            0.0000000000
     27752      3596  TIP3      OH2            54.2379372869        5.7127111562       10.7313361702  TIP3      3460            0.0000000000
     27753      3596  TIP3      H1             55.2076712801        5.9121797288       10.7237948999  TIP3      3460            0.0000000000
     27754      3596  TIP3      H2             54.0983186211        5.5124379383       11.6739971344  TIP3      3460            0.0000000000
     27755      3597  TIP3      OH2            54.2224643277        6.5646511818       13.4425576224  TIP3      3461            0.0000000000
     27756      3597  TIP3      H1             53.2804945090        6.8339403646       13.3955093952  TIP3      3461            0.0000000000
     27757      3597  TIP3      H2             54.6725572310        7.3202148358       13.0197964498  TIP3      3461            0.0000000000
     27758      3598  TIP3      OH2            38.1348090633        4.8285369383       17.2946656535  TIP3      3462            0.0000000000
     27759      3598  TIP3      H1             38.8277437255        4.1429710399       17.4672966542  TIP3      3462            0.0000000000
     27760      3598  TIP3      H2             37.9312496934        5.1068318722       18.2164053884  TIP3      3462            0.0000000000
     27761      3599  TIP3      OH2            57.1059263825       -0.1881029312       18.7095148893  TIP3      3463            0.0000000000
     27762      3599  TIP3      H1             56.5985625424       -0.8890000129       18.2401632317  TIP3      3463            0.0000000000
     27763      3599  TIP3      H2             56.8057696428        0.5853444534       18.1746523774  TIP3      3463            0.0000000000
     27764      3600  TIP3      OH2            54.2011146660        3.1637144996        5.3358349859  TIP3      3464            0.0000000000
     27765      3600  TIP3      H1             54.3851927864        2.5932227286        6.1194177630  TIP3      3464            0.0000000000
     27766      3600  TIP3      H2             53.4788540551        2.6574754318        4.8995906618  TIP3      3464            0.0000000000
     27767      3601  TIP3      OH2            39.5719628217        3.4268651037        9.7671789147  TIP3      3465            0.0000000000
     27768      3601  TIP3      H1             39.9938713975        2.5744088139        9.5277698253  TIP3      3465            0.0000000000
     27769      3601  TIP3      H2             40.3246226470        4.0362807805        9.8795968266  TIP3      3465            0.0000000000
     27770      3602  TIP3      OH2            38.1802126828        6.1362071147       11.0466881907  TIP3      3466            0.0000000000
     27771      3602  TIP3      H1             38.4995167648        5.7718826922       10.2008608918  TIP3      3466            0.0000000000
     27772      3602  TIP3      H2             38.6916351525        6.9591986112       11.0698492671  TIP3      3466            0.0000000000
     27773      3603  TIP3      OH2            55.8249218370        1.8033766634       17.3705678263  TIP3      3467            0.0000000000
     27774      3603  TIP3      H1             55.8246298067        2.6880151759       16.9692646826  TIP3      3467            0.0000000000
     27775      3603  TIP3      H2             55.4903328699        1.2778847607       16.6035164313  TIP3      3467            0.0000000000
     27776      3604  TIP3      OH2            56.0535037693        2.2119986789        1.4752218296  TIP3      3468            0.0000000000
     27777      3604  TIP3      H1             56.6980134523        1.7298633055        0.9447098618  TIP3      3468            0.0000000000
     27778      3604  TIP3      H2             56.5921788865        2.9430363259        1.8267945124  TIP3      3468            0.0000000000
     27779      3605  TIP3      OH2            37.7527311168        2.7901492463        4.3574888746  TIP3      3469            0.0000000000
     27780      3605  TIP3      H1             37.1064229964        3.2941452401        4.8704698461  TIP3      3469            0.0000000000
     27781      3605  TIP3      H2             38.0876543245        3.4808978496        3.7470715264  TIP3      3469            0.0000000000
     27782      3606  TIP3      OH2            53.3545123278       17.5982472215        7.1203160011  TIP3      3470            0.0000000000
     27783      3606  TIP3      H1             54.0094660564       17.5259288761        6.3912853029  TIP3      3470            0.0000000000
     27784      3606  TIP3      H2             53.8248520652       18.1523051120        7.7625798125  TIP3      3470            0.0000000000
     27785      3607  TIP3      OH2            38.1558190463        1.1545212526       12.5564469034  TIP3      3471            0.0000000000
     27786      3607  TIP3      H1             37.8093669809        1.5863310995       13.3528518265  TIP3      3471            0.0000000000
     27787      3607  TIP3      H2             38.0316067757        1.8580800657       11.8906591212  TIP3      3471            0.0000000000
     27788      3608  TIP3      OH2            40.1777640066       13.9727352760       16.9702293105  TIP3      3472            0.0000000000
     27789      3608  TIP3      H1             39.5563998465       14.7135848378       16.9805539939  TIP3      3472            0.0000000000
     27790      3608  TIP3      H2             39.6500005461       13.2888265866       16.5404286122  TIP3      3472            0.0000000000
     27791      3609  TIP3      OH2            43.3456289506       15.8647931879       13.6843769158  TIP3      3473            0.0000000000
     27792      3609  TIP3      H1             43.2974846511       16.7587360072       13.2618448083  TIP3      3473            0.0000000000
     27793      3609  TIP3      H2             44.2857474221       15.6481983812       13.5266005798  TIP3      3473            0.0000000000
     27794      3610  TIP3      OH2            47.3848817768       16.9587967128       16.1283006024  TIP3      3474            0.0000000000
     27795      3610  TIP3      H1             47.4900199371       16.6525468860       17.0535377172  TIP3      3474            0.0000000000
     27796      3610  TIP3      H2             48.2456182452       17.4068549550       15.9670219700  TIP3      3474            0.0000000000
     27797      3611  TIP3      OH2            49.4793832436       18.5919970172       15.8384452066  TIP3      3475            0.0000000000
     27798      3611  TIP3      H1             50.2462767042       18.2892183436       15.3183356803  TIP3      3475            0.0000000000
     27799      3611  TIP3      H2             49.8653078346       19.0063451155       16.6269707663  TIP3      3475            0.0000000000
     27800      3612  TIP3      OH2            54.9836623263        0.8301467147       15.0525077597  TIP3      3476            0.0000000000
     27801      3612  TIP3      H1             54.3621236229        1.4135370502       14.5914983965  TIP3      3476            0.0000000000
     27802      3612  TIP3      H2             55.3820220368        0.3188364192       14.3180968197  TIP3      3476            0.0000000000
     27803      3613  TIP3      OH2            40.8723467746       18.8530835873       13.5472756494  TIP3      3477            0.0000000000
     27804      3613  TIP3      H1             40.0918731756       19.3897118810       13.2843784645  TIP3      3477            0.0000000000
     27805      3613  TIP3      H2             40.7314022696       18.8406348984       14.5107755781  TIP3      3477            0.0000000000
     27806      3614  TIP3      OH2            43.2104286508       18.1688293069       12.4693978393  TIP3      3478            0.0000000000
     27807      3614  TIP3      H1             42.3068152270       18.3642203913       12.8315907416  TIP3      3478            0.0000000000
     27808      3614  TIP3      H2             43.2911019138       18.8314511730       11.7608156441  TIP3      3478            0.0000000000
     27809      3615  TIP3      OH2            47.6479779245       17.9122489339       11.7726647273  TIP3      3479            0.0000000000
     27810      3615  TIP3      H1             46.8226228097       18.3712428473       11.5413897332  TIP3      3479            0.0000000000
     27811      3615  TIP3      H2             48.0189999732       18.5915535811       12.3761649957  TIP3      3479            0.0000000000
     27812      3616  TIP3      OH2            49.8317798309       16.7699466670       13.1045381859  TIP3      3480            0.0000000000
     27813      3616  TIP3      H1             49.2078121388       17.1910018100       12.4795766444  TIP3      3480            0.0000000000
     27814      3616  TIP3      H2             50.6605238886       17.0883517532       12.7073275018  TIP3      3480            0.0000000000
     27815      3617  TIP3      OH2            52.6145703445       18.0643560511       12.9155165726  TIP3      3481            0.0000000000
     27816      3617  TIP3      H1             52.7610725995       18.9004629837       12.4236010095  TIP3      3481            0.0000000000
     27817      3617  TIP3      H2             52.8933585819       17.4060060043       12.2341703972  TIP3      3481            0.0000000000
     27818      3618  TIP3      OH2            40.4369195345       17.3080915220       10.4723705479  TIP3      3482            0.0000000000
     27819      3618  TIP3      H1             39.9740185731       16.6124437192       10.9680376635  TIP3      3482            0.0000000000
     27820      3618  TIP3      H2             41.2054938299       16.8029666007       10.1209944095  TIP3      3482            0.0000000000
     27821      3619  TIP3      OH2            42.3871345691       15.8932144372        9.2009754355  TIP3      3483            0.0000000000
     27822      3619  TIP3      H1             42.3127761899       14.9763150310        9.5387644936  TIP3      3483            0.0000000000
     27823      3619  TIP3      H2             43.2292217737       16.1267219748        9.6511932606  TIP3      3483            0.0000000000
     27824      3620  TIP3      OH2            44.6313876214       15.8975335675       10.5831124561  TIP3      3484            0.0000000000
     27825      3620  TIP3      H1             44.9059695916       15.0376729752       10.2153560973  TIP3      3484            0.0000000000
     27826      3620  TIP3      H2             44.9543716421       15.8132192187       11.5008555056  TIP3      3484            0.0000000000
     27827      3621  TIP3      OH2            48.4028206671        2.4333281863        9.3357897932  TIP3      3485            0.0000000000
     27828      3621  TIP3      H1             47.6940165831        2.3649399321       10.0051671999  TIP3      3485            0.0000000000
     27829      3621  TIP3      H2             48.6935100640        1.5052425840        9.3414171109  TIP3      3485            0.0000000000
     27830      3622  TIP3      OH2            53.1908498634        1.3524116732        9.3508434816  TIP3      3486            0.0000000000
     27831      3622  TIP3      H1             53.8274508799        1.3091682911        8.6056277448  TIP3      3486            0.0000000000
     27832      3622  TIP3      H2             52.7706789213        0.4851405465        9.2701335814  TIP3      3486            0.0000000000
     27833      3623  TIP3      OH2            55.0307584480        1.6096890778        7.3523598619  TIP3      3487            0.0000000000
     27834      3623  TIP3      H1             55.5603882142        1.1694346668        6.6551573927  TIP3      3487            0.0000000000
     27835      3623  TIP3      H2             55.6645526352        2.3333905869        7.5875712097  TIP3      3487            0.0000000000
     27836      3624  TIP3      OH2            40.2898996220        0.5989113094        6.7917417229  TIP3      3488            0.0000000000
     27837      3624  TIP3      H1             39.5742810379        0.6024674725        6.1320745898  TIP3      3488            0.0000000000
     27838      3624  TIP3      H2             40.9506172789        0.0630653738        6.2802234467  TIP3      3488            0.0000000000
     27839      3625  TIP3      OH2            39.0609026846        0.7649493486        3.0924217192  TIP3      3489            0.0000000000
     27840      3625  TIP3      H1             39.6291325116        1.3176444280        2.5052707460  TIP3      3489            0.0000000000
     27841      3625  TIP3      H2             38.5544907644        1.4821594120        3.5458375949  TIP3      3489            0.0000000000
     27842      3626  TIP3      OH2            44.2481948826        0.2738045509        6.7338533653  TIP3      3490            0.0000000000
     27843      3626  TIP3      H1             45.0934104479        0.7245907411        6.8387626136  TIP3      3490            0.0000000000
     27844      3626  TIP3      H2             44.3674130101       -0.5513609291        7.2406246802  TIP3      3490            0.0000000000
     27845      3627  TIP3      OH2            50.2753572048        0.6069777326        7.3257950936  TIP3      3491            0.0000000000
     27846      3627  TIP3      H1             49.4326882988        1.0598806957        7.1184045642  TIP3      3491            0.0000000000
     27847      3627  TIP3      H2             50.0429231154        0.0073965873        8.0448125119  TIP3      3491            0.0000000000
     27848      3628  TIP3      OH2            52.1428106180        1.8929082779        4.0534331284  TIP3      3492            0.0000000000
     27849      3628  TIP3      H1             51.3159391851        2.1588425993        3.6218492841  TIP3      3492            0.0000000000
     27850      3628  TIP3      H2             51.8950972482        1.0573120916        4.4951069233  TIP3      3492            0.0000000000
     27851      3629  TIP3      OH2            39.4130304739       16.6496174117        3.5594988591  TIP3      3493            0.0000000000
     27852      3629  TIP3      H1             38.5339596850       16.7604242803        3.1427220729  TIP3      3493            0.0000000000
     27853      3629  TIP3      H2             39.6768527245       17.5861797312        3.5119213030  TIP3      3493            0.0000000000
     27854      3630  TIP3      OH2            40.9877935834        1.9223500896        1.6458640744  TIP3      3494            0.0000000000
     27855      3630  TIP3      H1             41.4248254660        2.0383724876        0.7859156144  TIP3      3494            0.0000000000
     27856      3630  TIP3      H2             41.7416138542        1.8004337608        2.2449207086  TIP3      3494            0.0000000000
     27857      3631  TIP3      OH2            46.2867437873        3.1880844662        3.7230051186  TIP3      3495            0.0000000000
     27858      3631  TIP3      H1             46.7004237384        2.4225926057        4.1438404021  TIP3      3495            0.0000000000
     27859      3631  TIP3      H2             46.6539975405        3.9161342601        4.2767075827  TIP3      3495            0.0000000000
     27860      3632  TIP3      OH2            48.2426876041       18.6224629378        1.7020501009  TIP3      3496            0.0000000000
     27861      3632  TIP3      H1             49.1444620798       18.9088434881        1.4644977045  TIP3      3496            0.0000000000
     27862      3632  TIP3      H2             48.3621014232       17.6640636399        1.5175576253  TIP3      3496            0.0000000000
     27863      3633  TIP3      OH2            54.8498135123       16.7543891062        5.0462998837  TIP3      3497            0.0000000000
     27864      3633  TIP3      H1             54.6273302255       16.0088418608        4.4331074444  TIP3      3497            0.0000000000
     27865      3633  TIP3      H2             54.6954463502       17.5070207801        4.4367970490  TIP3      3497            0.0000000000
     27866      3634  TIP3      OH2            40.8021984950        1.1590626696       16.8114019949  TIP3      3498            0.0000000000
     27867      3634  TIP3      H1             40.2990504950        0.3252375673       16.8646927099  TIP3      3498            0.0000000000
     27868      3634  TIP3      H2             41.5802456254        0.8868669996       17.3616079405  TIP3      3498            0.0000000000
     27869      3635  TIP3      OH2            42.8838893592       66.1746765083       18.0188267097  TIP3      3499            0.0000000000
     27870      3635  TIP3      H1             43.7073807243       66.6632010311       17.8474595637  TIP3      3499            0.0000000000
     27871      3635  TIP3      H2             43.1771572823       65.2453974693       18.0493958871  TIP3      3499            0.0000000000
     27872      3636  TIP3      OH2            41.3957548935       17.9684782654        1.0645121772  TIP3      3500            0.0000000000
     27873      3636  TIP3      H1             40.5763826505       18.1043485815        1.5756748147  TIP3      3500            0.0000000000
     27874      3636  TIP3      H2             41.5277130474       17.0138837416        1.1084477383  TIP3      3500            0.0000000000
     27875      3637  TIP3      OH2            50.2079744249       66.1858205629       18.4808782376  TIP3      3501            0.0000000000
     27876      3637  TIP3      H1             49.5198798917       65.7202275211       19.0149955521  TIP3      3501            0.0000000000
     27877      3637  TIP3      H2             50.8571312019       65.4858534577       18.3060808373  TIP3      3501            0.0000000000
     27878      3638  TIP3      OH2            54.1355625322       15.7675345956       16.8490715375  TIP3      3502            0.0000000000
     27879      3638  TIP3      H1             53.4130132584       15.7435194998       16.1797129864  TIP3      3502            0.0000000000
     27880      3638  TIP3      H2             54.0938448705       16.7037754084       17.1150670153  TIP3      3502            0.0000000000
     27881      3639  TIP3      OH2            59.5616464285        8.6240847805       11.6441510499  TIP3      3503            0.0000000000
     27882      3639  TIP3      H1             59.5164010008        7.8010565377       12.1570446959  TIP3      3503            0.0000000000
     27883      3639  TIP3      H2             59.9412039444        9.2397443872       12.3074371323  TIP3      3503            0.0000000000
     27884      3640  TIP3      OH2            60.8365312360       13.4122654018        9.7820361253  TIP3      3504            0.0000000000
     27885      3640  TIP3      H1             60.5842422518       12.4989855981        9.5373002784  TIP3      3504            0.0000000000
     27886      3640  TIP3      H2             61.8110891159       13.3089340323        9.7722182654  TIP3      3504            0.0000000000
     27887      3641  TIP3      OH2            57.5295234160        6.1578954866        5.6692856010  TIP3      3505            0.0000000000
     27888      3641  TIP3      H1             57.2228147644        6.8999407564        6.2122820980  TIP3      3505            0.0000000000
     27889      3641  TIP3      H2             56.7653561443        6.0797346146        5.0657242135  TIP3      3505            0.0000000000
     27890      3642  TIP3      OH2            57.8832469162        8.9609269132        8.1417968079  TIP3      3506            0.0000000000
     27891      3642  TIP3      H1             58.2513365548        8.0772597399        8.3942090369  TIP3      3506            0.0000000000
     27892      3642  TIP3      H2             58.6732992663        9.4723617384        7.9050429479  TIP3      3506            0.0000000000
     27893      3643  TIP3      OH2             0.0193648409       12.1116460663       11.6283049516  TIP3      3507            0.0000000000
     27894      3643  TIP3      H1              0.3829022947       11.2677966687       11.2728897279  TIP3      3507            0.0000000000
     27895      3643  TIP3      H2              0.3494015214       12.7806065460       11.0040662669  TIP3      3507            0.0000000000
     27896      3644  TIP3      OH2            61.9493202744        3.9169740616        8.1319534187  TIP3      3508            0.0000000000
     27897      3644  TIP3      H1             62.2454233007        4.5730063066        7.4585487146  TIP3      3508            0.0000000000
     27898      3644  TIP3      H2             61.5962839384        3.1994455733        7.5603950691  TIP3      3508            0.0000000000
     27899      3645  TIP3      OH2            58.7375111615        6.5434175577        8.9092268694  TIP3      3509            0.0000000000
     27900      3645  TIP3      H1             59.4205977706        6.1632160526        9.4993216165  TIP3      3509            0.0000000000
     27901      3645  TIP3      H2             58.8905170629        5.9985054579        8.1065845761  TIP3      3509            0.0000000000
     27902      3646  TIP3      OH2            63.6606026298        7.8397299615        8.3448794371  TIP3      3510            0.0000000000
     27903      3646  TIP3      H1             64.4272637289        7.5093487142        8.8291744496  TIP3      3510            0.0000000000
     27904      3646  TIP3      H2             63.3532674850        7.0373475891        7.8998950445  TIP3      3510            0.0000000000
     27905      3647  TIP3      OH2            60.8364519819        2.8450020549       12.1715984941  TIP3      3511            0.0000000000
     27906      3647  TIP3      H1             60.6286640424        3.3821789339       11.3797038659  TIP3      3511            0.0000000000
     27907      3647  TIP3      H2             60.0763517723        3.0563960610       12.7539667138  TIP3      3511            0.0000000000
     27908      3648  TIP3      OH2            63.4844725540       10.6640722342       12.0955082120  TIP3      3512            0.0000000000
     27909      3648  TIP3      H1             62.8331001914       11.2508638793       12.5445623754  TIP3      3512            0.0000000000
     27910      3648  TIP3      H2             64.2776115363       11.2424994403       12.1028392738  TIP3      3512            0.0000000000
     27911      3649  TIP3      OH2            60.6385074202        4.9511330330       10.1767498430  TIP3      3513            0.0000000000
     27912      3649  TIP3      H1             61.2713098488        5.4994843452       10.6932225992  TIP3      3513            0.0000000000
     27913      3649  TIP3      H2             61.1824843767        4.7682838467        9.3635286116  TIP3      3513            0.0000000000
     27914      3650  TIP3      OH2            61.8042498119       12.5118290356       13.0034896375  TIP3      3514            0.0000000000
     27915      3650  TIP3      H1             61.6495385802       13.0458832101       12.2037934587  TIP3      3514            0.0000000000
     27916      3650  TIP3      H2             60.9726438497       12.6922382931       13.5116709673  TIP3      3514            0.0000000000
     27917      3651  TIP3      OH2            58.0815036350       12.0036263086        4.3913399323  TIP3      3515            0.0000000000
     27918      3651  TIP3      H1             57.9519418161       12.3742499837        3.4966054534  TIP3      3515            0.0000000000
     27919      3651  TIP3      H2             58.1065739808       12.8277258945        4.9374882306  TIP3      3515            0.0000000000
     27920      3652  TIP3      OH2            64.9502782056        0.8740814033       10.2121181891  TIP3      3516            0.0000000000
     27921      3652  TIP3      H1             65.1851231584        0.4212779867        9.3901301351  TIP3      3516            0.0000000000
     27922      3652  TIP3      H2             64.0805220467        1.2537193587        9.9860969448  TIP3      3516            0.0000000000
     27923      3653  TIP3      OH2            62.4189877132       10.0141406340        7.4867381347  TIP3      3517            0.0000000000
     27924      3653  TIP3      H1             62.4867844345        9.9883136016        6.5198641207  TIP3      3517            0.0000000000
     27925      3653  TIP3      H2             62.9346455889        9.2000682986        7.7051334099  TIP3      3517            0.0000000000
     27926      3654  TIP3      OH2            63.6557508996       13.2222134906        9.4669074109  TIP3      3518            0.0000000000
     27927      3654  TIP3      H1             63.8226629514       13.0605620017        8.5205428269  TIP3      3518            0.0000000000
     27928      3654  TIP3      H2             64.2921963079       12.6466873062        9.9072040209  TIP3      3518            0.0000000000
     27929      3655  TIP3      OH2            62.3270256487        8.5754585479       10.8440984087  TIP3      3519            0.0000000000
     27930      3655  TIP3      H1             62.6405615954        8.6141230328        9.9211376104  TIP3      3519            0.0000000000
     27931      3655  TIP3      H2             62.7334495308        9.3824953202       11.2348829353  TIP3      3519            0.0000000000
     27932      3656  TIP3      OH2            63.4056643544       12.5587875601       15.1998522991  TIP3      3520            0.0000000000
     27933      3656  TIP3      H1             62.8954822177       13.2324286801       15.7057458978  TIP3      3520            0.0000000000
     27934      3656  TIP3      H2             62.8661236052       12.5161735098       14.3834673743  TIP3      3520            0.0000000000
     27935      3657  TIP3      OH2            60.3141676975        9.2796119772       14.2268251140  TIP3      3521            0.0000000000
     27936      3657  TIP3      H1             60.7380229960        9.8840739734       14.8534339803  TIP3      3521            0.0000000000
     27937      3657  TIP3      H2             59.6706326955        8.8497304340       14.8278127734  TIP3      3521            0.0000000000
     27938      3658  TIP3      OH2            62.1134953564       14.5438390442       16.4769647601  TIP3      3522            0.0000000000
     27939      3658  TIP3      H1             62.0915815859       15.1843615010       15.7371769524  TIP3      3522            0.0000000000
     27940      3658  TIP3      H2             61.1555083479       14.4799050621       16.6995118798  TIP3      3522            0.0000000000
     27941      3659  TIP3      OH2            61.7485057771        8.9211907386        4.2617473926  TIP3      3523            0.0000000000
     27942      3659  TIP3      H1             61.1097502674        9.6591213894        4.1569222902  TIP3      3523            0.0000000000
     27943      3659  TIP3      H2             61.1779538827        8.1564915210        4.4144286637  TIP3      3523            0.0000000000
     27944      3660  TIP3      OH2            57.7355457750       11.4025629695       13.6142977611  TIP3      3524            0.0000000000
     27945      3660  TIP3      H1             57.2696068940       11.2622291957       12.7719277740  TIP3      3524            0.0000000000
     27946      3660  TIP3      H2             57.8900809988       10.4741878616       13.8833762934  TIP3      3524            0.0000000000
     27947      3661  TIP3      OH2            57.6324852065       14.1618687361       10.3996611379  TIP3      3525            0.0000000000
     27948      3661  TIP3      H1             58.3940076936       13.9242393116        9.8562537316  TIP3      3525            0.0000000000
     27949      3661  TIP3      H2             58.0300442377       14.7956734281       11.0151850141  TIP3      3525            0.0000000000
     27950      3662  TIP3      OH2            60.4895471321       17.0349318208        6.6260441154  TIP3      3526            0.0000000000
     27951      3662  TIP3      H1             60.7512070512       16.6381048679        7.4943170894  TIP3      3526            0.0000000000
     27952      3662  TIP3      H2             59.6477735268       16.5809626068        6.4451580014  TIP3      3526            0.0000000000
     27953      3663  TIP3      OH2            59.6683931533       13.0611630812       14.5099397278  TIP3      3527            0.0000000000
     27954      3663  TIP3      H1             59.8895729750       12.6626938630       15.3828564601  TIP3      3527            0.0000000000
     27955      3663  TIP3      H2             58.9239588149       12.4800876341       14.2373981280  TIP3      3527            0.0000000000
     27956      3664  TIP3      OH2            62.3159955623        1.4447706061       10.4498325270  TIP3      3528            0.0000000000
     27957      3664  TIP3      H1             61.6237739525        1.5723502606        9.7690233856  TIP3      3528            0.0000000000
     27958      3664  TIP3      H2             61.8757358864        1.8207120046       11.2333015122  TIP3      3528            0.0000000000
     27959      3665  TIP3      OH2            62.1555176255        6.2097326057       12.1135629961  TIP3      3529            0.0000000000
     27960      3665  TIP3      H1             61.3858197101        6.1496741312       12.7350931794  TIP3      3529            0.0000000000
     27961      3665  TIP3      H2             62.0174038849        7.0791604928       11.6715877794  TIP3      3529            0.0000000000
     27962      3666  TIP3      OH2            62.3798763887        5.8734301916        6.2995274221  TIP3      3530            0.0000000000
     27963      3666  TIP3      H1             61.4081754055        5.7540048645        6.2484216855  TIP3      3530            0.0000000000
     27964      3666  TIP3      H2             62.7312167864        5.5677289629        5.4315186811  TIP3      3530            0.0000000000
     27965      3667  TIP3      OH2            59.8774790173        6.0531153483       13.4109131116  TIP3      3531            0.0000000000
     27966      3667  TIP3      H1             59.6364351092        6.4656821107       14.2522065358  TIP3      3531            0.0000000000
     27967      3667  TIP3      H2             59.4453596558        5.1822344750       13.5015910921  TIP3      3531            0.0000000000
     27968      3668  TIP3      OH2            63.4210975782        4.2147049739        0.9402823967  TIP3      3532            0.0000000000
     27969      3668  TIP3      H1             62.9102793946        3.5824134394        1.4878395422  TIP3      3532            0.0000000000
     27970      3668  TIP3      H2             63.0872482999        5.0788070771        1.2540383775  TIP3      3532            0.0000000000
     27971      3669  TIP3      OH2            57.0147612510        3.3198666451        7.5079742196  TIP3      3533            0.0000000000
     27972      3669  TIP3      H1             57.7622352090        3.4414315845        8.1099346156  TIP3      3533            0.0000000000
     27973      3669  TIP3      H2             57.3249867566        3.6566903778        6.6536303482  TIP3      3533            0.0000000000
     27974      3670  TIP3      OH2            57.7797374410        4.3206260869        2.7729500092  TIP3      3534            0.0000000000
     27975      3670  TIP3      H1             58.6344465018        4.3553797953        2.3084703672  TIP3      3534            0.0000000000
     27976      3670  TIP3      H2             57.4296612512        5.2190227730        2.6601087145  TIP3      3534            0.0000000000
     27977      3671  TIP3      OH2            64.6133417115        3.6803604773        7.7944240406  TIP3      3535            0.0000000000
     27978      3671  TIP3      H1             63.7219749198        3.3188581588        7.9765480389  TIP3      3535            0.0000000000
     27979      3671  TIP3      H2             64.9814988040        3.6968602090        8.6798491986  TIP3      3535            0.0000000000
     27980      3672  TIP3      OH2            59.6625758425        5.1097543259        6.7658664475  TIP3      3536            0.0000000000
     27981      3672  TIP3      H1             58.9130624494        5.4174717029        6.1878918071  TIP3      3536            0.0000000000
     27982      3672  TIP3      H2             59.8795181388        4.2336423926        6.3858878406  TIP3      3536            0.0000000000
     27983      3673  TIP3      OH2            63.4992746334        5.4407076920        3.9684523915  TIP3      3537            0.0000000000
     27984      3673  TIP3      H1             64.2630676369        6.0181751157        4.1537539206  TIP3      3537            0.0000000000
     27985      3673  TIP3      H2             62.9637347935        5.9963328088        3.3529488589  TIP3      3537            0.0000000000
     27986      3674  TIP3      OH2            62.1920374467        6.4568754147        1.9025342273  TIP3      3538            0.0000000000
     27987      3674  TIP3      H1             61.2358425400        6.5941749071        1.7789415878  TIP3      3538            0.0000000000
     27988      3674  TIP3      H2             62.5644322480        7.0467027775        1.2181782257  TIP3      3538            0.0000000000
     27989      3675  TIP3      OH2            59.8826264625       11.5998477112       16.8463463628  TIP3      3539            0.0000000000
     27990      3675  TIP3      H1             60.4920158547       11.5843294584       17.6167261875  TIP3      3539            0.0000000000
     27991      3675  TIP3      H2             59.0931216815       11.1547122663       17.2359969473  TIP3      3539            0.0000000000
     27992      3676  TIP3      OH2            60.8675167846        2.5553747417        6.1515380724  TIP3      3540            0.0000000000
     27993      3676  TIP3      H1             60.4104866613        1.8330670310        6.6362727000  TIP3      3540            0.0000000000
     27994      3676  TIP3      H2             61.4883645359        2.0724040488        5.5922900093  TIP3      3540            0.0000000000
     27995      3677  TIP3      OH2            64.2666220438        4.7145702709       11.6302486466  TIP3      3541            0.0000000000
     27996      3677  TIP3      H1             63.5197083202        5.3272793241       11.8388454987  TIP3      3541            0.0000000000
     27997      3677  TIP3      H2             64.9729100341        5.3472523292       11.3686125693  TIP3      3541            0.0000000000
     27998      3678  TIP3      OH2            65.0628164606       11.4084789254        3.6959112146  TIP3      3542            0.0000000000
     27999      3678  TIP3      H1             64.3503221340       11.0892431104        3.1127916613  TIP3      3542            0.0000000000
     28000      3678  TIP3      H2             64.5572532508       11.6528698317        4.5072739777  TIP3      3542            0.0000000000
     28001      3679  TIP3      OH2            60.6635814986       10.5790935848        9.5718134872  TIP3      3543            0.0000000000
     28002      3679  TIP3      H1             61.2841590264       10.3433640251        8.8469586273  TIP3      3543            0.0000000000
     28003      3679  TIP3      H2             60.6864292722        9.7822038032       10.1411623332  TIP3      3543            0.0000000000
     28004      3680  TIP3      OH2            57.4273087507        8.8341302515       14.7188314364  TIP3      3544            0.0000000000
     28005      3680  TIP3      H1             57.3870103117        8.3699987563       15.5800989066  TIP3      3544            0.0000000000
     28006      3680  TIP3      H2             56.7449414105        8.3714502439       14.2122824444  TIP3      3544            0.0000000000
     28007      3681  TIP3      OH2            64.9337989938        8.4716694455       16.2524411869  TIP3      3545            0.0000000000
     28008      3681  TIP3      H1             64.1132440483        8.2773268811       15.7333021042  TIP3      3545            0.0000000000
     28009      3681  TIP3      H2             65.3366102205        7.5950352871       16.3236043629  TIP3      3545            0.0000000000
     28010      3682  TIP3      OH2            63.0429575991       14.2927916803        6.8784521859  TIP3      3546            0.0000000000
     28011      3682  TIP3      H1             63.5004077609       15.0359104003        6.4395679355  TIP3      3546            0.0000000000
     28012      3682  TIP3      H2             62.1233516917       14.5704570149        6.7728908258  TIP3      3546            0.0000000000
     28013      3683  TIP3      OH2            58.6134148721        9.2299167429        1.2095125712  TIP3      3547            0.0000000000
     28014      3683  TIP3      H1             59.0253115406        9.7592668020        1.9195544536  TIP3      3547            0.0000000000
     28015      3683  TIP3      H2             57.7194781307        9.0908809674        1.5845862654  TIP3      3547            0.0000000000
     28016      3684  TIP3      OH2            64.0144329295       11.8337328937        6.2325761650  TIP3      3548            0.0000000000
     28017      3684  TIP3      H1             63.6302765420       12.7365884133        6.3439567534  TIP3      3548            0.0000000000
     28018      3684  TIP3      H2             63.5929250822       11.3490613471        6.9653632764  TIP3      3548            0.0000000000
     28019      3685  TIP3      OH2            64.9578570815       15.8452652519       13.0699459435  TIP3      3549            0.0000000000
     28020      3685  TIP3      H1             65.1280793873       16.6375936308       13.6035356455  TIP3      3549            0.0000000000
     28021      3685  TIP3      H2             65.7180545361       15.2831779252       13.2792504666  TIP3      3549            0.0000000000
     28022      3686  TIP3      OH2            63.2027561931       16.9175200221        5.9603853277  TIP3      3550            0.0000000000
     28023      3686  TIP3      H1             62.2600565114       17.0937338490        6.1627881678  TIP3      3550            0.0000000000
     28024      3686  TIP3      H2             63.6200138269       17.6718928376        6.4407110051  TIP3      3550            0.0000000000
     28025      3687  TIP3      OH2            58.7098667254        3.5101532058       13.8727339249  TIP3      3551            0.0000000000
     28026      3687  TIP3      H1             57.7825529680        3.8406535372       13.7711823150  TIP3      3551            0.0000000000
     28027      3687  TIP3      H2             58.6531379168        3.0258285406       14.7064821943  TIP3      3551            0.0000000000
     28028      3688  TIP3      OH2            58.9902591548       15.5541462301       12.4785824934  TIP3      3552            0.0000000000
     28029      3688  TIP3      H1             59.5611766636       14.7822193817       12.6270561340  TIP3      3552            0.0000000000
     28030      3688  TIP3      H2             58.7372044961       15.7500531722       13.3915159020  TIP3      3552            0.0000000000
     28031      3689  TIP3      OH2            63.7523689449       13.6686967446        2.9128954060  TIP3      3553            0.0000000000
     28032      3689  TIP3      H1             64.5865395151       13.1848280880        2.7602000164  TIP3      3553            0.0000000000
     28033      3689  TIP3      H2             64.0350639139       14.6062112144        2.9788585304  TIP3      3553            0.0000000000
     28034      3690  TIP3      OH2            60.1045863550       10.8330504885        2.9744126440  TIP3      3554            0.0000000000
     28035      3690  TIP3      H1             59.5116232685       11.2227503935        3.6525350308  TIP3      3554            0.0000000000
     28036      3690  TIP3      H2             60.5627880421       11.6240364726        2.6416628185  TIP3      3554            0.0000000000
     28037      3691  TIP3      OH2            65.8472055712        5.6797413275        5.2920304152  TIP3      3555            0.0000000000
     28038      3691  TIP3      H1             66.5335712559        4.9952057087        5.2597496887  TIP3      3555            0.0000000000
     28039      3691  TIP3      H2             65.2820115848        5.3739334539        6.0245539121  TIP3      3555            0.0000000000
     28040      3692  TIP3      OH2            63.6551044886       16.4410304347        3.1758576782  TIP3      3556            0.0000000000
     28041      3692  TIP3      H1             63.4262838107       17.1921142291        2.5974127280  TIP3      3556            0.0000000000
     28042      3692  TIP3      H2             63.3619901897       16.7481769042        4.0524245393  TIP3      3556            0.0000000000
     28043      3693  TIP3      OH2            61.8989295076        3.1033384685        2.8861932801  TIP3      3557            0.0000000000
     28044      3693  TIP3      H1             62.1414963353        3.9074614024        3.3867140765  TIP3      3557            0.0000000000
     28045      3693  TIP3      H2             62.4912542595        2.4752159750        3.3347883188  TIP3      3557            0.0000000000
     28046      3694  TIP3      OH2            60.6075918179       13.5378897374        1.7550885547  TIP3      3558            0.0000000000
     28047      3694  TIP3      H1             61.4191401103       13.9071707225        2.1626854887  TIP3      3558            0.0000000000
     28048      3694  TIP3      H2             60.9946219347       13.0226301312        1.0257106019  TIP3      3558            0.0000000000
     28049      3695  TIP3      OH2            59.2859262729        6.3580990288        0.9714530210  TIP3      3559            0.0000000000
     28050      3695  TIP3      H1             59.2465423469        7.3357510721        1.0210983030  TIP3      3559            0.0000000000
     28051      3695  TIP3      H2             58.4202853184        6.1568417856        0.5892515959  TIP3      3559            0.0000000000
     28052      3696  TIP3      OH2            59.8356825703        1.1170901208        9.3669537690  TIP3      3560            0.0000000000
     28053      3696  TIP3      H1             59.8134920189        0.6969436618        8.4709331944  TIP3      3560            0.0000000000
     28054      3696  TIP3      H2             59.8033093842        0.3221474523        9.9453975679  TIP3      3560            0.0000000000
     28055      3697  TIP3      OH2            58.1565755359       14.4403025165        5.3926759877  TIP3      3561            0.0000000000
     28056      3697  TIP3      H1             57.5641621864       15.0183749121        5.8955764797  TIP3      3561            0.0000000000
     28057      3697  TIP3      H2             58.3947351987       15.0711968032        4.6744504848  TIP3      3561            0.0000000000
     28058      3698  TIP3      OH2            57.7030120989       17.5579071931       17.0612369959  TIP3      3562            0.0000000000
     28059      3698  TIP3      H1             58.3906813869       17.4463706035       17.7561873094  TIP3      3562            0.0000000000
     28060      3698  TIP3      H2             57.3765441825       16.6467802524       17.0004230713  TIP3      3562            0.0000000000
     28061      3699  TIP3      OH2            62.5986343211       16.3569788822       18.5640658800  TIP3      3563            0.0000000000
     28062      3699  TIP3      H1             63.4579783519       16.1361823094       18.9508897080  TIP3      3563            0.0000000000
     28063      3699  TIP3      H2             62.5640393721       15.7660456015       17.7816647382  TIP3      3563            0.0000000000
     28064      3700  TIP3      OH2            57.5401025712       10.9297475945       17.8959479334  TIP3      3564            0.0000000000
     28065      3700  TIP3      H1             56.8439483811       10.6374010623       18.5223041379  TIP3      3564            0.0000000000
     28066      3700  TIP3      H2             56.9930477928       11.2935380674       17.1648803918  TIP3      3564            0.0000000000
     28067      3701  TIP3      OH2            61.8476017632       11.7483621068        0.0242114296  TIP3      3565            0.0000000000
     28068      3701  TIP3      H1             62.2863270201       11.2810480336        0.7652808737  TIP3      3565            0.0000000000
     28069      3701  TIP3      H2             62.6350460816       12.0828636149       -0.4545957738  TIP3      3565            0.0000000000
     28070      3702  TIP3      OH2            64.7046171695       11.3302723149       17.2679385626  TIP3      3566            0.0000000000
     28071      3702  TIP3      H1             64.4669685014       11.8589101333       16.4642525400  TIP3      3566            0.0000000000
     28072      3702  TIP3      H2             64.7097929633       10.4310123788       16.8818895161  TIP3      3566            0.0000000000
     28073      3703  TIP3      OH2            58.9975552669        8.3916820224       17.1408636845  TIP3      3567            0.0000000000
     28074      3703  TIP3      H1             58.8387942734        7.6138733954       17.7202958433  TIP3      3567            0.0000000000
     28075      3703  TIP3      H2             58.7336051972        9.1000582397       17.7562370933  TIP3      3567            0.0000000000
     28076      3704  TIP3      OH2            63.2414336539       10.0931456700        2.1056248938  TIP3      3568            0.0000000000
     28077      3704  TIP3      H1             62.7756353543        9.6346386567        2.8398546436  TIP3      3568            0.0000000000
     28078      3704  TIP3      H2             63.6419511760        9.3320314722        1.6256674884  TIP3      3568            0.0000000000
     28079      3705  TIP3      OH2            62.6404974609        7.9906785031       14.6975012999  TIP3      3569            0.0000000000
     28080      3705  TIP3      H1             61.8272338368        8.4351056251       14.3956934322  TIP3      3569            0.0000000000
     28081      3705  TIP3      H2             63.2023168309        8.0063289039       13.9056656541  TIP3      3569            0.0000000000
     28082      3706  TIP3      OH2            64.4532850288        8.0660296334        0.8725863894  TIP3      3570            0.0000000000
     28083      3706  TIP3      H1             64.7554061838        7.3021766648        0.3559561274  TIP3      3570            0.0000000000
     28084      3706  TIP3      H2             65.2721845979        8.6000438854        0.9199062781  TIP3      3570            0.0000000000
     28085      3707  TIP3      OH2            63.1776293102        5.2319957242       15.5796454551  TIP3      3571            0.0000000000
     28086      3707  TIP3      H1             63.1396838433        4.5498104291       14.8695335217  TIP3      3571            0.0000000000
     28087      3707  TIP3      H2             62.8984014622        6.0437159723       15.1085322937  TIP3      3571            0.0000000000
     28088      3708  TIP3      OH2            63.0928940178        3.4015577354       13.6124141964  TIP3      3572            0.0000000000
     28089      3708  TIP3      H1             63.7371616107        3.7209791967       12.9371531473  TIP3      3572            0.0000000000
     28090      3708  TIP3      H2             62.3140508983        3.2729803989       13.0332618792  TIP3      3572            0.0000000000
     28091      3709  TIP3      OH2            65.1808661001        8.8530767613       13.0899271160  TIP3      3573            0.0000000000
     28092      3709  TIP3      H1             65.9110768462        9.1112491234       12.4945727142  TIP3      3573            0.0000000000
     28093      3709  TIP3      H2             64.4548112763        9.3785160050       12.6926047094  TIP3      3573            0.0000000000
     28094      3710  TIP3      OH2            61.8390644344        6.0921029545       17.8813480018  TIP3      3574            0.0000000000
     28095      3710  TIP3      H1             60.8977151876        5.8913112102       17.7377262877  TIP3      3574            0.0000000000
     28096      3710  TIP3      H2             62.2562928322        5.6987277715       17.0786865226  TIP3      3574            0.0000000000
     28097      3711  TIP3      OH2            63.3888920754        0.8493873123       14.0801121590  TIP3      3575            0.0000000000
     28098      3711  TIP3      H1             63.3582642407        1.8417401346       14.0566369187  TIP3      3575            0.0000000000
     28099      3711  TIP3      H2             62.6368081522        0.5963431567       13.5199306859  TIP3      3575            0.0000000000
     28100      3712  TIP3      OH2            64.9338895678        4.8489118779       17.5543739349  TIP3      3576            0.0000000000
     28101      3712  TIP3      H1             64.3229510192        4.5497574959       18.2560888687  TIP3      3576            0.0000000000
     28102      3712  TIP3      H2             64.2939347866        4.9077265817       16.8100467889  TIP3      3576            0.0000000000
     28103      3713  TIP3      OH2            59.7384825259        4.0838163287       17.5790827314  TIP3      3577            0.0000000000
     28104      3713  TIP3      H1             60.0300014262        3.2843754684       17.1135622682  TIP3      3577            0.0000000000
     28105      3713  TIP3      H2             59.8416901515        3.8078441462       18.5094227968  TIP3      3577            0.0000000000
     28106      3714  TIP3      OH2            64.6860035250        0.8170967962       16.3570159334  TIP3      3578            0.0000000000
     28107      3714  TIP3      H1             64.5905573990       -0.1402075083       16.5280485612  TIP3      3578            0.0000000000
     28108      3714  TIP3      H2             64.1856950227        0.9009571844       15.5203299697  TIP3      3578            0.0000000000
     28109      3715  TIP3      OH2            64.5018467764        1.3164097110       18.9566535865  TIP3      3579            0.0000000000
     28110      3715  TIP3      H1             64.5752721384        1.1568204038       17.9896713549  TIP3      3579            0.0000000000
     28111      3715  TIP3      H2             64.1493698785        2.2261631379       18.9514588648  TIP3      3579            0.0000000000
     28112      3716  TIP3      OH2            63.7194961858       18.6196263731        1.1619517155  TIP3      3580            0.0000000000
     28113      3716  TIP3      H1             64.6778337145       18.4723205178        1.1480910117  TIP3      3580            0.0000000000
     28114      3716  TIP3      H2             63.6645410181       19.5802464001        1.0624843978  TIP3      3580            0.0000000000
     28115      3717  TIP3      OH2            57.9858148882       12.6546074982        1.4556739496  TIP3      3581            0.0000000000
     28116      3717  TIP3      H1             58.9079814191       12.9819902696        1.5477586721  TIP3      3581            0.0000000000
     28117      3717  TIP3      H2             58.0056411243       12.4562031708        0.4983984501  TIP3      3581            0.0000000000
     28118      3718  TIP3      OH2            56.7380965609       18.2552915810        6.2924641615  TIP3      3582            0.0000000000
     28119      3718  TIP3      H1             56.1118524910       17.6046752624        5.8920433267  TIP3      3582            0.0000000000
     28120      3718  TIP3      H2             57.0858161640       17.7175446170        7.0379749254  TIP3      3582            0.0000000000
     28121      3719  TIP3      OH2            57.6561759589       16.6609804692        8.2128886519  TIP3      3583            0.0000000000
     28122      3719  TIP3      H1             56.9908717792       16.3195337929        8.8446835688  TIP3      3583            0.0000000000
     28123      3719  TIP3      H2             58.3478329638       16.9385920001        8.8484886660  TIP3      3583            0.0000000000
     28124      3720  TIP3      OH2            57.5010979434        9.8967258100       10.7419487279  TIP3      3584            0.0000000000
     28125      3720  TIP3      H1             57.4597288430        9.5058411237        9.8382850868  TIP3      3584            0.0000000000
     28126      3720  TIP3      H2             58.4149154032        9.6246364358       10.9931081570  TIP3      3584            0.0000000000
     28127      3721  TIP3      OH2            57.2855288656        4.6894454410       16.6478951372  TIP3      3585            0.0000000000
     28128      3721  TIP3      H1             58.1808513657        4.6336340750       17.0647578048  TIP3      3585            0.0000000000
     28129      3721  TIP3      H2             56.7163161700        4.6587256787       17.4271405433  TIP3      3585            0.0000000000
     28130      3722  TIP3      OH2            58.3935529157        3.2372607075        9.8946617199  TIP3      3586            0.0000000000
     28131      3722  TIP3      H1             58.8286196895        2.3661890908        9.7628422105  TIP3      3586            0.0000000000
     28132      3722  TIP3      H2             59.1519906704        3.8426416143        9.9064194741  TIP3      3586            0.0000000000
     28133      3723  TIP3      OH2            56.8331165968        6.1457188294       10.8480348781  TIP3      3587            0.0000000000
     28134      3723  TIP3      H1             57.4289734010        5.8302577776       10.1507659161  TIP3      3587            0.0000000000
     28135      3723  TIP3      H2             57.1838835274        7.0324126095       10.9849216807  TIP3      3587            0.0000000000
     28136      3724  TIP3      OH2            56.8112872947        2.7358780625        4.7276307176  TIP3      3588            0.0000000000
     28137      3724  TIP3      H1             55.8503471986        2.8639202609        4.8550496019  TIP3      3588            0.0000000000
     28138      3724  TIP3      H2             57.0577643656        3.5487955630        4.2358879515  TIP3      3588            0.0000000000
     28139      3725  TIP3      OH2            56.9477598261        0.8588556599       12.9919674413  TIP3      3589            0.0000000000
     28140      3725  TIP3      H1             56.7199445193        1.6054309624       13.5610577764  TIP3      3589            0.0000000000
     28141      3725  TIP3      H2             57.1980193213        1.3206576859       12.1846809401  TIP3      3589            0.0000000000
     28142      3726  TIP3      OH2            59.4728359049       14.3940662500       17.2418074537  TIP3      3590            0.0000000000
     28143      3726  TIP3      H1             58.6516097065       14.6798499081       16.8258010358  TIP3      3590            0.0000000000
     28144      3726  TIP3      H2             59.2931414456       13.4600412805       17.4827021123  TIP3      3590            0.0000000000
     28145      3727  TIP3      OH2            62.2275100495       15.8291676440       13.8866825674  TIP3      3591            0.0000000000
     28146      3727  TIP3      H1             62.0779340630       16.5873573157       13.2739532958  TIP3      3591            0.0000000000
     28147      3727  TIP3      H2             63.1636383130       15.6134135877       13.6926792803  TIP3      3591            0.0000000000
     28148      3728  TIP3      OH2            59.5590259021       18.9961739631       13.3983402176  TIP3      3592            0.0000000000
     28149      3728  TIP3      H1             58.7892921504       19.6040848417       13.4155653321  TIP3      3592            0.0000000000
     28150      3728  TIP3      H2             59.3879101649       18.4189241247       14.1460703241  TIP3      3592            0.0000000000
     28151      3729  TIP3      OH2            61.7486356551       18.0315891901       12.4097599501  TIP3      3593            0.0000000000
     28152      3729  TIP3      H1             60.8337259945       18.3103348476       12.6517250854  TIP3      3593            0.0000000000
     28153      3729  TIP3      H2             62.0253395349       18.8173654902       11.8953535446  TIP3      3593            0.0000000000
     28154      3730  TIP3      OH2            59.1848091025       17.2409983568       10.4038484222  TIP3      3594            0.0000000000
     28155      3730  TIP3      H1             58.8949633267       16.7415330822       11.2014897902  TIP3      3594            0.0000000000
     28156      3730  TIP3      H2             60.1008800011       16.8924144995       10.3158646016  TIP3      3594            0.0000000000
     28157      3731  TIP3      OH2            61.3220809403       16.0926321309        9.0071663491  TIP3      3595            0.0000000000
     28158      3731  TIP3      H1             61.1436310941       15.1903278129        9.3443119650  TIP3      3595            0.0000000000
     28159      3731  TIP3      H2             62.1476129364       16.2424625703        9.5282048549  TIP3      3595            0.0000000000
     28160      3732  TIP3      OH2            63.3199798351       15.8512683551       10.6394967715  TIP3      3596            0.0000000000
     28161      3732  TIP3      H1             63.8035187570       15.1070280186       10.2415650360  TIP3      3596            0.0000000000
     28162      3732  TIP3      H2             63.7433216363       15.9688984839       11.5041806524  TIP3      3596            0.0000000000
     28163      3733  TIP3      OH2            59.5705788276        0.3115821514        6.8617952182  TIP3      3597            0.0000000000
     28164      3733  TIP3      H1             58.7725383081        0.2780378209        6.3040046776  TIP3      3597            0.0000000000
     28165      3733  TIP3      H2             60.2544107791       -0.0313497466        6.2395903462  TIP3      3597            0.0000000000
     28166      3734  TIP3      OH2            58.2452292279        0.8248054759        3.0465919726  TIP3      3598            0.0000000000
     28167      3734  TIP3      H1             58.7335060292        1.4728404163        2.5052975416  TIP3      3598            0.0000000000
     28168      3734  TIP3      H2             57.6257367157        1.4056071219        3.5335737545  TIP3      3598            0.0000000000
     28169      3735  TIP3      OH2            63.4469503109        0.4888685784        7.3095032406  TIP3      3599            0.0000000000
     28170      3735  TIP3      H1             64.2642812270        0.5555940110        6.7978191594  TIP3      3599            0.0000000000
     28171      3735  TIP3      H2             63.4216772051       -0.4623339211        7.5499382414  TIP3      3599            0.0000000000
     28172      3736  TIP3      OH2            58.1111868925       16.4598016645        3.6576741548  TIP3      3600            0.0000000000
     28173      3736  TIP3      H1             57.2314621565       16.5340865839        3.2294202806  TIP3      3600            0.0000000000
     28174      3736  TIP3      H2             58.3814243831       17.3912140021        3.5508140825  TIP3      3600            0.0000000000
     28175      3737  TIP3      OH2            59.8639757490        2.2849503446        1.4542211452  TIP3      3601            0.0000000000
     28176      3737  TIP3      H1             60.3709851496        2.0366177899        0.6599139218  TIP3      3601            0.0000000000
     28177      3737  TIP3      H2             60.5824979034        2.7140799500        1.9786771992  TIP3      3601            0.0000000000
     28178      3738  TIP3      OH2            64.3345699901        2.8914586196        4.2880081013  TIP3      3602            0.0000000000
     28179      3738  TIP3      H1             65.2661640679        2.7117360229        4.0902987003  TIP3      3602            0.0000000000
     28180      3738  TIP3      H2             64.2603053589        3.8625880270        4.2053866236  TIP3      3602            0.0000000000
     28181      3739  TIP3      OH2            59.7710850996        1.3574150827       16.1936214189  TIP3      3603            0.0000000000
     28182      3739  TIP3      H1             58.9421021933        0.8616423153       16.2146768848  TIP3      3603            0.0000000000
     28183      3739  TIP3      H2             60.2829025913        0.9113350431       16.9023671601  TIP3      3603            0.0000000000
     28184      3740  TIP3      OH2            61.4207968168       66.1775291395       18.1450541146  TIP3      3604            0.0000000000
     28185      3740  TIP3      H1             62.3328258383       65.9488878906       18.4086057512  TIP3      3604            0.0000000000
     28186      3740  TIP3      H2             61.0016759996       65.2963824058       18.0626713569  TIP3      3604            0.0000000000
     28187      3741  TIP3      OH2            60.1566577202       17.8592126606        0.8934792476  TIP3      3605            0.0000000000
     28188      3741  TIP3      H1             59.4953933428       18.1082235112        1.5656055855  TIP3      3605            0.0000000000
     28189      3741  TIP3      H2             60.5106732064       17.0160206626        1.1972907354  TIP3      3605            0.0000000000
     28190      3742  TIP3      OH2            12.3204287798       28.6545099544        6.5910370690  TIP3      3606            0.0000000000
     28191      3742  TIP3      H1             12.0374128117       29.6015291936        6.5910188009  TIP3      3606            0.0000000000
     28192      3742  TIP3      H2             11.6637254370       28.2565010016        5.9938480334  TIP3      3606            0.0000000000
     28193      3743  TIP3      OH2             9.9314298286       27.1016683074       11.0725311383  TIP3      3607            0.0000000000
     28194      3743  TIP3      H1             10.6094550260       26.8244743233       11.7245803508  TIP3      3607            0.0000000000
     28195      3743  TIP3      H2             10.5637097398       27.5834341135       10.4897153980  TIP3      3607            0.0000000000
     28196      3744  TIP3      OH2             3.5545083388       27.4644866354       11.7423954217  TIP3      3608            0.0000000000
     28197      3744  TIP3      H1              3.3244720063       26.7389411969       12.3585670996  TIP3      3608            0.0000000000
     28198      3744  TIP3      H2              3.9093607065       28.1290400759       12.3712528695  TIP3      3608            0.0000000000
     28199      3745  TIP3      OH2            13.9388281036       30.9515585076        8.1231535364  TIP3      3609            0.0000000000
     28200      3745  TIP3      H1             13.6812435805       30.1020093576        8.5133925805  TIP3      3609            0.0000000000
     28201      3745  TIP3      H2             14.4362581876       31.3572502769        8.8495966503  TIP3      3609            0.0000000000
     28202      3746  TIP3      OH2             4.1313271315       32.1735274495        9.4952234017  TIP3      3610            0.0000000000
     28203      3746  TIP3      H1              3.8720445470       31.2373115450        9.5603042832  TIP3      3610            0.0000000000
     28204      3746  TIP3      H2              5.0671412388       32.0245238262        9.7282152697  TIP3      3610            0.0000000000
     28205      3747  TIP3      OH2             1.0100880782       26.3680595508        6.0109626017  TIP3      3611            0.0000000000
     28206      3747  TIP3      H1              0.5987415398       27.1543459601        5.6294135005  TIP3      3611            0.0000000000
     28207      3747  TIP3      H2              0.2907519925       25.7178766434        5.8886307258  TIP3      3611            0.0000000000
     28208      3748  TIP3      OH2             1.7659146520       27.9169217247        8.4492662675  TIP3      3612            0.0000000000
     28209      3748  TIP3      H1              1.9286436594       26.9536701427        8.5177233394  TIP3      3612            0.0000000000
     28210      3748  TIP3      H2              1.9126383055       28.0452678243        7.5056462934  TIP3      3612            0.0000000000
     28211      3749  TIP3      OH2            11.8096127587       36.4358741704        8.6572894081  TIP3      3613            0.0000000000
     28212      3749  TIP3      H1             12.3491835895       35.7944063031        8.1486114056  TIP3      3613            0.0000000000
     28213      3749  TIP3      H2             11.4214210614       35.8203681803        9.2976643018  TIP3      3613            0.0000000000
     28214      3750  TIP3      OH2             9.0300802395       30.8172400151       11.0975654372  TIP3      3614            0.0000000000
     28215      3750  TIP3      H1              9.2332139685       30.2093434385       10.3681787251  TIP3      3614            0.0000000000
     28216      3750  TIP3      H2              9.9464139851       31.1127104756       11.2823838169  TIP3      3614            0.0000000000
     28217      3751  TIP3      OH2            17.8301683316       21.9099808065       11.1863706531  TIP3      3615            0.0000000000
     28218      3751  TIP3      H1             17.9540054651       22.2758940856       12.0791344423  TIP3      3615            0.0000000000
     28219      3751  TIP3      H2             18.7227551109       22.0428590227       10.8249986720  TIP3      3615            0.0000000000
     28220      3752  TIP3      OH2            12.9644125440       24.5691480797       11.3712637001  TIP3      3616            0.0000000000
     28221      3752  TIP3      H1             13.0032869826       23.6035057442       11.1788316664  TIP3      3616            0.0000000000
     28222      3752  TIP3      H2             12.5172738332       24.8883710978       10.5706621610  TIP3      3616            0.0000000000
     28223      3753  TIP3      OH2             5.3679184488       22.7717075250        8.0323099014  TIP3      3617            0.0000000000
     28224      3753  TIP3      H1              5.5566079571       23.4963880758        7.3956772673  TIP3      3617            0.0000000000
     28225      3753  TIP3      H2              5.2951665932       22.0156520794        7.4079011628  TIP3      3617            0.0000000000
     28226      3754  TIP3      OH2            13.4422624933       23.0321802927        6.6940783810  TIP3      3618            0.0000000000
     28227      3754  TIP3      H1             13.9774147195       22.9033291650        7.5059229739  TIP3      3618            0.0000000000
     28228      3754  TIP3      H2             13.8021688225       23.8654773511        6.3566399626  TIP3      3618            0.0000000000
     28229      3755  TIP3      OH2             2.4623420539       25.0609802820        8.9110613069  TIP3      3619            0.0000000000
     28230      3755  TIP3      H1              3.0673381018       24.5526038910        9.4771597016  TIP3      3619            0.0000000000
     28231      3755  TIP3      H2              2.6595740689       24.7271375350        8.0200219405  TIP3      3619            0.0000000000
     28232      3756  TIP3      OH2             6.7584757798       26.7161892382        8.1530339195  TIP3      3620            0.0000000000
     28233      3756  TIP3      H1              7.6557218938       26.3944584672        8.3708029935  TIP3      3620            0.0000000000
     28234      3756  TIP3      H2              6.4591430633       26.0069266818        7.5375281380  TIP3      3620            0.0000000000
     28235      3757  TIP3      OH2            18.2466901183       23.0807887657       13.8770325919  TIP3      3621            0.0000000000
     28236      3757  TIP3      H1             18.0422226779       24.0222489419       13.6695088407  TIP3      3621            0.0000000000
     28237      3757  TIP3      H2             18.2797477840       23.1480052722       14.8443640923  TIP3      3621            0.0000000000
     28238      3758  TIP3      OH2             4.5949720039       21.5840834746       12.2069775324  TIP3      3622            0.0000000000
     28239      3758  TIP3      H1              4.3417186412       22.3181060328       11.6072916032  TIP3      3622            0.0000000000
     28240      3758  TIP3      H2              4.0837620589       21.8242732295       13.0092813798  TIP3      3622            0.0000000000
     28241      3759  TIP3      OH2            11.4915942536       31.0855022624        5.9287489394  TIP3      3623            0.0000000000
     28242      3759  TIP3      H1             11.3656990384       31.1872488551        4.9695375327  TIP3      3623            0.0000000000
     28243      3759  TIP3      H2             11.0928382590       31.9322518686        6.2387007435  TIP3      3623            0.0000000000
     28244      3760  TIP3      OH2             6.7893370053       29.4097889310       12.1903845641  TIP3      3624            0.0000000000
     28245      3760  TIP3      H1              6.1558101819       30.0457602555       12.5779846756  TIP3      3624            0.0000000000
     28246      3760  TIP3      H2              7.4705547022       30.0093757323       11.8277822270  TIP3      3624            0.0000000000
     28247      3761  TIP3      OH2            15.3403213113       23.0344145551        8.6302235141  TIP3      3625            0.0000000000
     28248      3761  TIP3      H1             15.9310746971       22.2688705916        8.5721465152  TIP3      3625            0.0000000000
     28249      3761  TIP3      H2             15.9250607223       23.6728544389        9.1072250282  TIP3      3625            0.0000000000
     28250      3762  TIP3      OH2             4.3124224783       23.5936775016       10.3823535599  TIP3      3626            0.0000000000
     28251      3762  TIP3      H1              4.8461807944       24.3587665915       10.6870494797  TIP3      3626            0.0000000000
     28252      3762  TIP3      H2              4.7492177823       23.3417614489        9.5242900642  TIP3      3626            0.0000000000
     28253      3763  TIP3      OH2             5.3624612757       31.7208383447       13.1700643859  TIP3      3627            0.0000000000
     28254      3763  TIP3      H1              5.0513703827       32.5195078998       12.7221541054  TIP3      3627            0.0000000000
     28255      3763  TIP3      H2              4.5692615637       31.4556558050       13.6648088422  TIP3      3627            0.0000000000
     28256      3764  TIP3      OH2             1.4084023778       31.6316323721        3.7887832807  TIP3      3628            0.0000000000
     28257      3764  TIP3      H1              0.6545008554       31.0039310398        3.6526353386  TIP3      3628            0.0000000000
     28258      3764  TIP3      H2              1.4180256387       31.6879820928        4.7570027378  TIP3      3628            0.0000000000
     28259      3765  TIP3      OH2            15.0761899790       33.2394012609       10.6742499287  TIP3      3629            0.0000000000
     28260      3765  TIP3      H1             14.1324646945       33.0952242766       10.8771691226  TIP3      3629            0.0000000000
     28261      3765  TIP3      H2             15.0234633574       34.1102629424       10.2492360632  TIP3      3629            0.0000000000
     28262      3766  TIP3      OH2            15.1907236308       21.4522533745       11.9649569346  TIP3      3630            0.0000000000
     28263      3766  TIP3      H1             14.5601208283       21.7868895789       11.2943241475  TIP3      3630            0.0000000000
     28264      3766  TIP3      H2             16.0493725705       21.6395151795       11.5224161417  TIP3      3630            0.0000000000
     28265      3767  TIP3      OH2             8.3061228791       19.1329842286        9.9946903622  TIP3      3631            0.0000000000
     28266      3767  TIP3      H1              7.9560481033       18.5935355457        9.2644638072  TIP3      3631            0.0000000000
     28267      3767  TIP3      H2              7.4856520240       19.6473258126       10.1967440506  TIP3      3631            0.0000000000
     28268      3768  TIP3      OH2            13.4205789558       34.5942968046        7.3125181529  TIP3      3632            0.0000000000
     28269      3768  TIP3      H1             13.7594597855       33.8381108800        6.7825161186  TIP3      3632            0.0000000000
     28270      3768  TIP3      H2             14.1341623431       35.2651830985        7.2061012574  TIP3      3632            0.0000000000
     28271      3769  TIP3      OH2            14.4494518186       32.4258382714        5.8300397595  TIP3      3633            0.0000000000
     28272      3769  TIP3      H1             14.1510473359       31.8461932080        5.1123814654  TIP3      3633            0.0000000000
     28273      3769  TIP3      H2             14.1687621935       31.9074914657        6.6280466651  TIP3      3633            0.0000000000
     28274      3770  TIP3      OH2            16.2093101208       31.4948107876       14.6715384994  TIP3      3634            0.0000000000
     28275      3770  TIP3      H1             16.4577366510       30.7005411264       14.1370953569  TIP3      3634            0.0000000000
     28276      3770  TIP3      H2             16.1797638364       32.1671939323       13.9596010380  TIP3      3634            0.0000000000
     28277      3771  TIP3      OH2            10.5964484004       27.8658113938        4.3250571187  TIP3      3635            0.0000000000
     28278      3771  TIP3      H1              9.8602783062       28.5158091152        4.2909716720  TIP3      3635            0.0000000000
     28279      3771  TIP3      H2             11.3292409566       28.3618872279        3.9028724938  TIP3      3635            0.0000000000
     28280      3772  TIP3      OH2            10.5131005352       27.1040522448        1.3191349978  TIP3      3636            0.0000000000
     28281      3772  TIP3      H1             10.9400342901       27.1058660561        2.1947947849  TIP3      3636            0.0000000000
     28282      3772  TIP3      H2             10.9943914273       26.3896817844        0.8728457248  TIP3      3636            0.0000000000
     28283      3773  TIP3      OH2            17.9424171686       27.3151071643       12.1684811695  TIP3      3637            0.0000000000
     28284      3773  TIP3      H1             17.4644357390       28.0798720555       12.5615238829  TIP3      3637            0.0000000000
     28285      3773  TIP3      H2             18.5164151697       27.7621291547       11.5122429114  TIP3      3637            0.0000000000
     28286      3774  TIP3      OH2            14.5686585264       27.7406120281        5.2316987644  TIP3      3638            0.0000000000
     28287      3774  TIP3      H1             13.8784999002       28.1592253666        5.8026962056  TIP3      3638            0.0000000000
     28288      3774  TIP3      H2             15.1667170528       27.3735096184        5.9084545447  TIP3      3638            0.0000000000
     28289      3775  TIP3      OH2            14.5196868333       26.9950011401       14.1618847029  TIP3      3639            0.0000000000
     28290      3775  TIP3      H1             14.3250945656       27.9480008936       14.1253531058  TIP3      3639            0.0000000000
     28291      3775  TIP3      H2             13.8088554038       26.6652781724       13.5810307612  TIP3      3639            0.0000000000
     28292      3776  TIP3      OH2             5.4547005290       28.6803511836        7.0173619739  TIP3      3640            0.0000000000
     28293      3776  TIP3      H1              5.3122235802       28.2472568031        6.1574792050  TIP3      3640            0.0000000000
     28294      3776  TIP3      H2              5.9515104644       27.9769989175        7.4903640684  TIP3      3640            0.0000000000
     28295      3777  TIP3      OH2             6.9456491045       32.0615183280        9.7208521652  TIP3      3641            0.0000000000
     28296      3777  TIP3      H1              6.9228999008       31.8624852603        8.7668316327  TIP3      3641            0.0000000000
     28297      3777  TIP3      H2              7.6999590750       31.5427646402       10.0731810218  TIP3      3641            0.0000000000
     28298      3778  TIP3      OH2             6.2181651612       27.1596758024       10.7167223937  TIP3      3642            0.0000000000
     28299      3778  TIP3      H1              6.3198927189       27.3609647594        9.7639961813  TIP3      3642            0.0000000000
     28300      3778  TIP3      H2              6.1341824461       28.0476411261       11.1138993647  TIP3      3642            0.0000000000
     28301      3779  TIP3      OH2            12.4850210495       33.5979475689       11.3562937336  TIP3      3643            0.0000000000
     28302      3779  TIP3      H1             12.2720015015       33.9245395830       12.2451622816  TIP3      3643            0.0000000000
     28303      3779  TIP3      H2             12.2156524773       32.6542726182       11.4274909496  TIP3      3643            0.0000000000
     28304      3780  TIP3      OH2             7.4275697999       32.0527436994       14.8499225794  TIP3      3644            0.0000000000
     28305      3780  TIP3      H1              6.7433839314       32.4784907907       15.4132873385  TIP3      3644            0.0000000000
     28306      3780  TIP3      H2              6.8755950168       31.8510128152       14.0607690550  TIP3      3644            0.0000000000
     28307      3781  TIP3      OH2            12.9653558584       27.7684582346        3.1275104768  TIP3      3645            0.0000000000
     28308      3781  TIP3      H1             13.7016006348       27.8495445299        3.7750267139  TIP3      3645            0.0000000000
     28309      3781  TIP3      H2             13.3642345320       28.1507116056        2.3155301601  TIP3      3645            0.0000000000
     28310      3782  TIP3      OH2             3.9372319541       28.6686297990       14.1188674408  TIP3      3646            0.0000000000
     28311      3782  TIP3      H1              3.7785425849       29.5059889313       14.5884298362  TIP3      3646            0.0000000000
     28312      3782  TIP3      H2              3.2222168454       28.0982557159       14.4596331896  TIP3      3646            0.0000000000
     28313      3783  TIP3      OH2            10.6568729479       33.5090563575        6.5448281013  TIP3      3647            0.0000000000
     28314      3783  TIP3      H1             11.0099679672       33.9855583294        7.3035636460  TIP3      3647            0.0000000000
     28315      3783  TIP3      H2             10.2909735922       34.2044896148        5.9832301534  TIP3      3647            0.0000000000
     28316      3784  TIP3      OH2             5.6456349950       33.6229937011       16.2039554565  TIP3      3648            0.0000000000
     28317      3784  TIP3      H1              5.4384238124       34.0863312031       15.3672349317  TIP3      3648            0.0000000000
     28318      3784  TIP3      H2              4.7352388024       33.4824085121       16.5269023978  TIP3      3648            0.0000000000
     28319      3785  TIP3      OH2            16.9706831231       19.0098263660        3.3680825276  TIP3      3649            0.0000000000
     28320      3785  TIP3      H1             16.0055326689       19.1100702996        3.5313169273  TIP3      3649            0.0000000000
     28321      3785  TIP3      H2             17.1736955366       19.8514234492        2.9197960263  TIP3      3649            0.0000000000
     28322      3786  TIP3      OH2             4.5504579744       27.7525664551        4.3299142346  TIP3      3650            0.0000000000
     28323      3786  TIP3      H1              4.1584301987       28.5655006314        3.9412151962  TIP3      3650            0.0000000000
     28324      3786  TIP3      H2              3.7847630227       27.1607585401        4.3783830525  TIP3      3650            0.0000000000
     28325      3787  TIP3      OH2            17.8213938332       33.3778419824        0.9543716349  TIP3      3651            0.0000000000
     28326      3787  TIP3      H1             18.1279106223       34.2990283191        1.0063450786  TIP3      3651            0.0000000000
     28327      3787  TIP3      H2             18.6380153025       32.9121922934        1.2081497099  TIP3      3651            0.0000000000
     28328      3788  TIP3      OH2             0.8132520371       30.1031131301       14.1725576486  TIP3      3652            0.0000000000
     28329      3788  TIP3      H1              0.4401468393       30.2885982166       13.2865971501  TIP3      3652            0.0000000000
     28330      3788  TIP3      H2              0.9785826125       29.1439504465       14.1384914056  TIP3      3652            0.0000000000
     28331      3789  TIP3      OH2             0.5074872435       33.4769904384       10.4307992958  TIP3      3653            0.0000000000
     28332      3789  TIP3      H1              1.4662876084       33.5634031980       10.6199704627  TIP3      3653            0.0000000000
     28333      3789  TIP3      H2              0.1715685942       33.6754298121       11.3156706206  TIP3      3653            0.0000000000
     28334      3790  TIP3      OH2            18.6763999339       33.8853921309       16.1501157081  TIP3      3654            0.0000000000
     28335      3790  TIP3      H1             18.4267926637       32.9561456038       16.0066809829  TIP3      3654            0.0000000000
     28336      3790  TIP3      H2             17.7994639905       34.2695033856       16.4111840947  TIP3      3654            0.0000000000
     28337      3791  TIP3      OH2             9.9732324946       32.9955559648       15.0094065000  TIP3      3655            0.0000000000
     28338      3791  TIP3      H1              9.9090394534       33.8862288428       15.3890938710  TIP3      3655            0.0000000000
     28339      3791  TIP3      H2              9.0291115998       32.7064470521       14.9770687908  TIP3      3655            0.0000000000
     28340      3792  TIP3      OH2            10.3585431667       37.0413483956        4.5137256616  TIP3      3656            0.0000000000
     28341      3792  TIP3      H1             10.2835783226       37.3737065074        3.6024195475  TIP3      3656            0.0000000000
     28342      3792  TIP3      H2             10.3771263513       37.8892866020        5.0165042820  TIP3      3656            0.0000000000
     28343      3793  TIP3      OH2             4.3983324680       35.6347440817        6.6677994516  TIP3      3657            0.0000000000
     28344      3793  TIP3      H1              4.6185957091       35.3403226657        7.5893289731  TIP3      3657            0.0000000000
     28345      3793  TIP3      H2              3.6583789259       35.0229001090        6.4709675876  TIP3      3657            0.0000000000
     28346      3794  TIP3      OH2            13.2986997193       36.2698111549        1.6666905358  TIP3      3658            0.0000000000
     28347      3794  TIP3      H1             13.9022532748       35.5535250034        1.3801318919  TIP3      3658            0.0000000000
     28348      3794  TIP3      H2             13.1748847360       36.0639010497        2.6113510532  TIP3      3658            0.0000000000
     28349      3795  TIP3      OH2            12.9962309896       36.1486225629        4.4654043867  TIP3      3659            0.0000000000
     28350      3795  TIP3      H1             12.0269438263       36.2968115034        4.5572099857  TIP3      3659            0.0000000000
     28351      3795  TIP3      H2             13.0995562221       35.2785423806        4.8882177730  TIP3      3659            0.0000000000
     28352      3796  TIP3      OH2            15.7061957638       24.5925354664       16.4786976682  TIP3      3660            0.0000000000
     28353      3796  TIP3      H1             15.8800560867       24.8500506492       15.5484548971  TIP3      3660            0.0000000000
     28354      3796  TIP3      H2             15.4635943849       23.6595848237       16.3306148697  TIP3      3660            0.0000000000
     28355      3797  TIP3      OH2             2.9148492283       31.4837153028       15.0872702612  TIP3      3661            0.0000000000
     28356      3797  TIP3      H1              3.2049167948       30.9225408879       15.8385960690  TIP3      3661            0.0000000000
     28357      3797  TIP3      H2              2.0364130284       31.0691420186       14.9070515360  TIP3      3661            0.0000000000
     28358      3798  TIP3      OH2             5.8989760870       20.2202534729       10.4130452574  TIP3      3662            0.0000000000
     28359      3798  TIP3      H1              5.0740836909       20.2132955535        9.8830213090  TIP3      3662            0.0000000000
     28360      3798  TIP3      H2              5.5699064903       20.7142932476       11.1940643370  TIP3      3662            0.0000000000
     28361      3799  TIP3      OH2            10.4969149490       19.4672434983       13.6998581485  TIP3      3663            0.0000000000
     28362      3799  TIP3      H1             10.7382330002       19.2457409901       14.6224859369  TIP3      3663            0.0000000000
     28363      3799  TIP3      H2              9.5107725116       19.4510950587       13.7115326980  TIP3      3663            0.0000000000
     28364      3800  TIP3      OH2            13.2843005739       24.0277939936       14.9480922832  TIP3      3664            0.0000000000
     28365      3800  TIP3      H1             13.1456888951       23.3071556263       15.6015378678  TIP3      3664            0.0000000000
     28366      3800  TIP3      H2             12.8995550208       23.6164886514       14.1467609783  TIP3      3664            0.0000000000
     28367      3801  TIP3      OH2            14.2617923626       28.7475000028        1.0550250831  TIP3      3665            0.0000000000
     28368      3801  TIP3      H1             14.4952954757       28.7094361093        0.1158559498  TIP3      3665            0.0000000000
     28369      3801  TIP3      H2             14.9991539218       29.2864291154        1.3824816699  TIP3      3665            0.0000000000
     28370      3802  TIP3      OH2            10.3244706324       22.7066629528        1.2963287475  TIP3      3666            0.0000000000
     28371      3802  TIP3      H1             10.1285750021       22.7132007542        2.2503537013  TIP3      3666            0.0000000000
     28372      3802  TIP3      H2              9.7226270044       22.0039239081        1.0186066769  TIP3      3666            0.0000000000
     28373      3803  TIP3      OH2             6.0243531650       24.9560309319       12.1218726803  TIP3      3667            0.0000000000
     28374      3803  TIP3      H1              5.2327508164       25.0402148964       12.6893267707  TIP3      3667            0.0000000000
     28375      3803  TIP3      H2              5.9596506460       25.7966452868       11.5974243326  TIP3      3667            0.0000000000
     28376      3804  TIP3      OH2             5.7929606598       24.8487844560        6.3827387695  TIP3      3668            0.0000000000
     28377      3804  TIP3      H1              4.8224958185       24.9768157756        6.2305886970  TIP3      3668            0.0000000000
     28378      3804  TIP3      H2              6.0816783208       24.5290140087        5.5024921568  TIP3      3668            0.0000000000
     28379      3805  TIP3      OH2            11.4049297329       25.6351384293        5.4297389712  TIP3      3669            0.0000000000
     28380      3805  TIP3      H1             11.0853149704       26.4581624014        4.9871486696  TIP3      3669            0.0000000000
     28381      3805  TIP3      H2             11.9438790315       25.2406027474        4.7162315506  TIP3      3669            0.0000000000
     28382      3806  TIP3      OH2            10.0706719162       26.1438756357       17.1960796967  TIP3      3670            0.0000000000
     28383      3806  TIP3      H1              9.7031177060       25.2542731801       17.4345056926  TIP3      3670            0.0000000000
     28384      3806  TIP3      H2             10.4124345160       26.3927022819       18.0815644558  TIP3      3670            0.0000000000
     28385      3807  TIP3      OH2            11.9309538300       25.3234322511        8.6930058036  TIP3      3671            0.0000000000
     28386      3807  TIP3      H1             11.8333227751       26.0252605731        8.0293362359  TIP3      3671            0.0000000000
     28387      3807  TIP3      H2             12.1718175637       24.5721618545        8.1199393914  TIP3      3671            0.0000000000
     28388      3808  TIP3      OH2             3.5502321940       24.9055074136       13.3262549210  TIP3      3672            0.0000000000
     28389      3808  TIP3      H1              3.0858123851       25.2155590365       14.1092912919  TIP3      3672            0.0000000000
     28390      3808  TIP3      H2              3.3515629120       23.9476481169       13.3612520885  TIP3      3672            0.0000000000
     28391      3809  TIP3      OH2             6.9831458485       22.8802553409        0.8396541002  TIP3      3673            0.0000000000
     28392      3809  TIP3      H1              6.6928140722       22.2172187118        1.4931305719  TIP3      3673            0.0000000000
     28393      3809  TIP3      H2              6.5016486045       23.6716057018        1.1547035503  TIP3      3673            0.0000000000
     28394      3810  TIP3      OH2             1.9835807946       22.3238824045        6.9567679276  TIP3      3674            0.0000000000
     28395      3810  TIP3      H1              1.4286064414       22.1661434059        7.7431950833  TIP3      3674            0.0000000000
     28396      3810  TIP3      H2              2.7725836107       21.8241140161        7.2172104738  TIP3      3674            0.0000000000
     28397      3811  TIP3      OH2             1.3317795554       23.0597243784        2.7150945904  TIP3      3675            0.0000000000
     28398      3811  TIP3      H1              1.7105913183       23.4568647149        1.9119925741  TIP3      3675            0.0000000000
     28399      3811  TIP3      H2              0.8028321092       23.7978303745        3.0556089386  TIP3      3675            0.0000000000
     28400      3812  TIP3      OH2            11.8082086725       26.2804453823       13.0554135953  TIP3      3676            0.0000000000
     28401      3812  TIP3      H1             12.3738587330       25.6677979862       12.5204588685  TIP3      3676            0.0000000000
     28402      3812  TIP3      H2             11.1659919197       25.6943209593       13.5169683945  TIP3      3676            0.0000000000
     28403      3813  TIP3      OH2             8.3432217828       22.7206251686        7.6972194762  TIP3      3677            0.0000000000
     28404      3813  TIP3      H1              7.4054440160       22.8298733772        7.9223978975  TIP3      3677            0.0000000000
     28405      3813  TIP3      H2              8.7254418073       23.4075618253        8.2771944967  TIP3      3677            0.0000000000
     28406      3814  TIP3      OH2             3.1595563758       24.7948871872        6.0995344882  TIP3      3678            0.0000000000
     28407      3814  TIP3      H1              2.3433318107       25.2768756406        5.8450790104  TIP3      3678            0.0000000000
     28408      3814  TIP3      H2              2.8724994276       23.8714701819        6.0030395581  TIP3      3678            0.0000000000
     28409      3815  TIP3      OH2             6.3302373259       23.9342261575        3.9254460049  TIP3      3679            0.0000000000
     28410      3815  TIP3      H1              7.2642150031       24.1492986434        4.1494504151  TIP3      3679            0.0000000000
     28411      3815  TIP3      H2              6.2014388824       24.4762535804        3.1105293050  TIP3      3679            0.0000000000
     28412      3816  TIP3      OH2            12.9053720994       21.9451058979       10.7167453015  TIP3      3680            0.0000000000
     28413      3816  TIP3      H1             12.5649199836       21.4913314124       11.5094228572  TIP3      3680            0.0000000000
     28414      3816  TIP3      H2             12.8264293154       21.2870561310       10.0084835306  TIP3      3680            0.0000000000
     28415      3817  TIP3      OH2             5.9107692817       25.2072907216        1.6860010851  TIP3      3681            0.0000000000
     28416      3817  TIP3      H1              5.2486479645       25.2635444571        0.9757355774  TIP3      3681            0.0000000000
     28417      3817  TIP3      H2              6.6016182749       25.8111884830        1.3248234579  TIP3      3681            0.0000000000
     28418      3818  TIP3      OH2            15.7767633485       37.5995410909       17.3617953603  TIP3      3682            0.0000000000
     28419      3818  TIP3      H1             16.2277778149       37.9803245525       16.5842916889  TIP3      3682            0.0000000000
     28420      3818  TIP3      H2             16.5633725783       37.5026119305       17.9571730481  TIP3      3682            0.0000000000
     28421      3819  TIP3      OH2             3.7059257020       29.9234020924       17.1110971474  TIP3      3683            0.0000000000
     28422      3819  TIP3      H1              4.4082610727       30.0269277261       17.7858402669  TIP3      3683            0.0000000000
     28423      3819  TIP3      H2              2.9022008790       29.9109096468       17.6793360334  TIP3      3683            0.0000000000
     28424      3820  TIP3      OH2             9.1495958448       25.1650589974        8.9489603880  TIP3      3684            0.0000000000
     28425      3820  TIP3      H1             10.1259161934       25.0967472202        8.8954456773  TIP3      3684            0.0000000000
     28426      3820  TIP3      H2              9.0868891681       25.5483884842        9.8406606930  TIP3      3684            0.0000000000
     28427      3821  TIP3      OH2             4.6978711701       21.0563692165        6.0786049743  TIP3      3685            0.0000000000
     28428      3821  TIP3      H1              4.2629949712       20.2440271747        6.4153699154  TIP3      3685            0.0000000000
     28429      3821  TIP3      H2              4.9092071350       20.8044530973        5.1646201689  TIP3      3685            0.0000000000
     28430      3822  TIP3      OH2             8.2636428214       23.6208869635       11.7157532682  TIP3      3686            0.0000000000
     28431      3822  TIP3      H1              7.4114965964       24.1017470834       11.6495694151  TIP3      3686            0.0000000000
     28432      3822  TIP3      H2              8.7631485765       24.2350333399       12.2707416436  TIP3      3686            0.0000000000
     28433      3823  TIP3      OH2             8.9354244256       29.8567646589        4.0398373793  TIP3      3687            0.0000000000
     28434      3823  TIP3      H1              8.1764299481       29.3923502070        3.6146108785  TIP3      3687            0.0000000000
     28435      3823  TIP3      H2              8.5162406394       30.1545977212        4.8880732603  TIP3      3687            0.0000000000
     28436      3824  TIP3      OH2            16.8146406179       29.4622802855       13.1521228007  TIP3      3688            0.0000000000
     28437      3824  TIP3      H1             17.3641911440       29.8948694875       12.4605653947  TIP3      3688            0.0000000000
     28438      3824  TIP3      H2             16.0148973839       29.3466160420       12.5666792739  TIP3      3688            0.0000000000
     28439      3825  TIP3      OH2            12.9359610593       22.9011508411        1.6866457698  TIP3      3689            0.0000000000
     28440      3825  TIP3      H1             11.9968073104       22.9069471066        1.4042171075  TIP3      3689            0.0000000000
     28441      3825  TIP3      H2             12.9404367151       23.7144571590        2.2278017883  TIP3      3689            0.0000000000
     28442      3826  TIP3      OH2            10.6772767547       30.3730697767       15.3351671789  TIP3      3690            0.0000000000
     28443      3826  TIP3      H1              9.7965798999       30.0195244658       15.5136984884  TIP3      3690            0.0000000000
     28444      3826  TIP3      H2             10.4650610747       31.3237469446       15.2713964924  TIP3      3690            0.0000000000
     28445      3827  TIP3      OH2            12.9106880633       25.0195249930        3.2888769197  TIP3      3691            0.0000000000
     28446      3827  TIP3      H1             13.6970908914       24.8126518828        3.8377518992  TIP3      3691            0.0000000000
     28447      3827  TIP3      H2             12.9576645959       25.9905529884        3.1988165336  TIP3      3691            0.0000000000
     28448      3828  TIP3      OH2             4.6124305830       29.4886850356        9.6161537683  TIP3      3692            0.0000000000
     28449      3828  TIP3      H1              4.8014510310       29.4307120412        8.6569314909  TIP3      3692            0.0000000000
     28450      3828  TIP3      H2              4.0477493298       28.7130320367        9.7678207532  TIP3      3692            0.0000000000
     28451      3829  TIP3      OH2            10.9417637460       31.3088605789        2.9363091460  TIP3      3693            0.0000000000
     28452      3829  TIP3      H1             10.5557343246       32.1796819578        3.1886960958  TIP3      3693            0.0000000000
     28453      3829  TIP3      H2             10.2587699295       30.6910957705        3.2609320882  TIP3      3693            0.0000000000
     28454      3830  TIP3      OH2             1.4708258082       27.3216901114       14.3794419738  TIP3      3694            0.0000000000
     28455      3830  TIP3      H1              1.1897570878       27.2942918735       15.3161536587  TIP3      3694            0.0000000000
     28456      3830  TIP3      H2              0.6169386563       27.1021476326       13.9722487106  TIP3      3694            0.0000000000
     28457      3831  TIP3      OH2             7.8895400324       27.5222777423       16.3244249820  TIP3      3695            0.0000000000
     28458      3831  TIP3      H1              7.8368718641       27.5779842059       15.3374671791  TIP3      3695            0.0000000000
     28459      3831  TIP3      H2              8.7543581026       27.0810913113       16.4310341035  TIP3      3695            0.0000000000
     28460      3832  TIP3      OH2            12.8652700230       32.9048670409       15.0267950681  TIP3      3696            0.0000000000
     28461      3832  TIP3      H1             12.0184163772       32.9130528784       14.5435584596  TIP3      3696            0.0000000000
     28462      3832  TIP3      H2             12.5704503384       33.2923792792       15.8758752242  TIP3      3696            0.0000000000
     28463      3833  TIP3      OH2            18.2199600563       24.8835197475        3.3587661761  TIP3      3697            0.0000000000
     28464      3833  TIP3      H1             17.5481754658       24.8098353326        2.6513547673  TIP3      3697            0.0000000000
     28465      3833  TIP3      H2             18.4743583759       25.8174076672        3.2344859981  TIP3      3697            0.0000000000
     28466      3834  TIP3      OH2            18.6125248307       31.0166128690       15.9544667160  TIP3      3698            0.0000000000
     28467      3834  TIP3      H1             17.8014690085       31.1221773469       15.4085097180  TIP3      3698            0.0000000000
     28468      3834  TIP3      H2             19.2852724496       31.0054022863       15.2342333602  TIP3      3698            0.0000000000
     28469      3835  TIP3      OH2            16.4980148591       33.5418176263        3.3511525502  TIP3      3699            0.0000000000
     28470      3835  TIP3      H1             16.1061762165       32.6650215739        3.4226772626  TIP3      3699            0.0000000000
     28471      3835  TIP3      H2             16.8897739230       33.5425120629        2.4538740500  TIP3      3699            0.0000000000
     28472      3836  TIP3      OH2            12.3235980933       27.8918420712       10.0766255137  TIP3      3700            0.0000000000
     28473      3836  TIP3      H1             13.0381231436       28.4592911073       10.4299658446  TIP3      3700            0.0000000000
     28474      3836  TIP3      H2             12.8247272629       27.4007477093        9.4148121979  TIP3      3700            0.0000000000
     28475      3837  TIP3      OH2             6.4607630934       32.8254392647        6.8482664581  TIP3      3701            0.0000000000
     28476      3837  TIP3      H1              6.7158816705       33.7642847334        6.7625797232  TIP3      3701            0.0000000000
     28477      3837  TIP3      H2              5.6076385498       32.8355587940        6.3856710018  TIP3      3701            0.0000000000
     28478      3838  TIP3      OH2             1.8790216268       27.2584363219        2.4055757413  TIP3      3702            0.0000000000
     28479      3838  TIP3      H1              2.5322234822       27.9788946610        2.3824811801  TIP3      3702            0.0000000000
     28480      3838  TIP3      H2              1.5283393337       27.3466042078        1.4952894155  TIP3      3702            0.0000000000
     28481      3839  TIP3      OH2             7.7981999851       30.5074455059        6.3892416164  TIP3      3703            0.0000000000
     28482      3839  TIP3      H1              7.3986080145       31.4055948194        6.4531682664  TIP3      3703            0.0000000000
     28483      3839  TIP3      H2              7.1739405322       29.9536180429        6.8877102943  TIP3      3703            0.0000000000
     28484      3840  TIP3      OH2             8.1064983625       34.8675895801       13.0926298561  TIP3      3704            0.0000000000
     28485      3840  TIP3      H1              8.7062254197       35.5086262658       12.6551693039  TIP3      3704            0.0000000000
     28486      3840  TIP3      H2              8.6750472978       34.5361599098       13.8034667630  TIP3      3704            0.0000000000
     28487      3841  TIP3      OH2             6.9516107745       35.4965116089        5.9686123596  TIP3      3705            0.0000000000
     28488      3841  TIP3      H1              5.9735375557       35.4991780868        6.0164555402  TIP3      3705            0.0000000000
     28489      3841  TIP3      H2              7.1034448180       36.4011671176        6.3264524999  TIP3      3705            0.0000000000
     28490      3842  TIP3      OH2            12.1016337534       31.0246994958       11.8972122459  TIP3      3706            0.0000000000
     28491      3842  TIP3      H1             11.9213617989       30.6759826738       12.7836395861  TIP3      3706            0.0000000000
     28492      3842  TIP3      H2             12.9444580173       30.5505444302       11.6810989255  TIP3      3706            0.0000000000
     28493      3843  TIP3      OH2            14.1429446438       31.9047614527        1.8903261756  TIP3      3707            0.0000000000
     28494      3843  TIP3      H1             14.3611067624       31.3452075958        2.6650077199  TIP3      3707            0.0000000000
     28495      3843  TIP3      H2             13.2002986397       31.6833484636        1.8039180491  TIP3      3707            0.0000000000
     28496      3844  TIP3      OH2            14.6988056644       34.8790573263       14.6643968225  TIP3      3708            0.0000000000
     28497      3844  TIP3      H1             13.8383181228       34.4210596800       14.7719816307  TIP3      3708            0.0000000000
     28498      3844  TIP3      H2             14.4840502706       35.5700387147       14.0068337926  TIP3      3708            0.0000000000
     28499      3845  TIP3      OH2            18.4168075891       36.1362999221        1.8816902135  TIP3      3709            0.0000000000
     28500      3845  TIP3      H1             18.6509379065       36.7096959581        1.1381193418  TIP3      3709            0.0000000000
     28501      3845  TIP3      H2             17.8104015811       36.7274073873        2.3876750138  TIP3      3709            0.0000000000
     28502      3846  TIP3      OH2             2.8541396726       22.4522732573       14.2968920549  TIP3      3710            0.0000000000
     28503      3846  TIP3      H1              2.2519822920       22.8823699552       14.9357457954  TIP3      3710            0.0000000000
     28504      3846  TIP3      H2              2.7296129342       21.5355094084       14.6041081426  TIP3      3710            0.0000000000
     28505      3847  TIP3      OH2            14.9276257771       30.2401145645        3.8923438341  TIP3      3711            0.0000000000
     28506      3847  TIP3      H1             14.8256647524       29.3061700216        4.1388627397  TIP3      3711            0.0000000000
     28507      3847  TIP3      H2             15.8440884219       30.4035840235        4.1893552126  TIP3      3711            0.0000000000
     28508      3848  TIP3      OH2             2.1740261938       34.1231081635       12.5787566159  TIP3      3712            0.0000000000
     28509      3848  TIP3      H1              2.9728613805       33.8009139564       13.0313912678  TIP3      3712            0.0000000000
     28510      3848  TIP3      H2              1.9831403372       34.9597321755       13.0271379376  TIP3      3712            0.0000000000
     28511      3849  TIP3      OH2             7.1178527973       32.3802590442        2.6020155403  TIP3      3713            0.0000000000
     28512      3849  TIP3      H1              7.7508438526       31.7496306250        2.9767132685  TIP3      3713            0.0000000000
     28513      3849  TIP3      H2              7.3896665545       33.2576270311        2.9536941699  TIP3      3713            0.0000000000
     28514      3850  TIP3      OH2             3.3083291335       29.9242000615        2.9880308308  TIP3      3714            0.0000000000
     28515      3850  TIP3      H1              2.5780228906       30.5386998881        3.2344479475  TIP3      3714            0.0000000000
     28516      3850  TIP3      H2              3.9219820829       30.5482367851        2.5344346124  TIP3      3714            0.0000000000
     28517      3851  TIP3      OH2            12.1603311777       21.7387575991       13.7767414924  TIP3      3715            0.0000000000
     28518      3851  TIP3      H1             12.1005583086       21.5547409213       14.7328241089  TIP3      3715            0.0000000000
     28519      3851  TIP3      H2             11.5010372291       21.0964207974       13.4488833139  TIP3      3715            0.0000000000
     28520      3852  TIP3      OH2            11.9801586388       22.0551868090        4.6689063152  TIP3      3716            0.0000000000
     28521      3852  TIP3      H1             12.4874197641       22.4239974740        3.9348390609  TIP3      3716            0.0000000000
     28522      3852  TIP3      H2             12.4372594034       22.4738610792        5.4299380484  TIP3      3716            0.0000000000
     28523      3853  TIP3      OH2            10.1142222159       33.7988971307        3.5452611978  TIP3      3717            0.0000000000
     28524      3853  TIP3      H1              9.2653205335       34.2747590693        3.3962930494  TIP3      3717            0.0000000000
     28525      3853  TIP3      H2             10.6778551883       34.1892309588        2.8386298637  TIP3      3717            0.0000000000
     28526      3854  TIP3      OH2             9.0089626757       23.8682132087        5.1331778982  TIP3      3718            0.0000000000
     28527      3854  TIP3      H1              9.8209329912       24.3956886987        5.2473971743  TIP3      3718            0.0000000000
     28528      3854  TIP3      H2              8.8799601380       23.4244871959        6.0024156938  TIP3      3718            0.0000000000
     28529      3855  TIP3      OH2            10.0665654200       24.8217064643       14.7037499825  TIP3      3719            0.0000000000
     28530      3855  TIP3      H1             10.1909489196       25.3362837113       15.5277133445  TIP3      3719            0.0000000000
     28531      3855  TIP3      H2             10.3214905890       23.9265986724       14.9664252359  TIP3      3719            0.0000000000
     28532      3856  TIP3      OH2            10.2865559622       20.3214156256        5.8820659269  TIP3      3720            0.0000000000
     28533      3856  TIP3      H1             10.3403990648       20.5219334900        6.8471003354  TIP3      3720            0.0000000000
     28534      3856  TIP3      H2             10.9273198720       20.9872414469        5.5327109580  TIP3      3720            0.0000000000
     28535      3857  TIP3      OH2             7.6577584278       34.9157972432        3.3396612096  TIP3      3721            0.0000000000
     28536      3857  TIP3      H1              7.7731207954       35.7292769071        2.8005667328  TIP3      3721            0.0000000000
     28537      3857  TIP3      H2              7.2773368446       35.2989842044        4.1552860818  TIP3      3721            0.0000000000
     28538      3858  TIP3      OH2             5.6348948979       21.5096883381        2.8662193329  TIP3      3722            0.0000000000
     28539      3858  TIP3      H1              5.6489821108       22.3499700925        3.3766168022  TIP3      3722            0.0000000000
     28540      3858  TIP3      H2              6.4993640562       21.1495780986        3.1395906110  TIP3      3722            0.0000000000
     28541      3859  TIP3      OH2            15.5820285962       22.3075516201       14.8857886028  TIP3      3723            0.0000000000
     28542      3859  TIP3      H1             14.7418990774       22.2930078605       14.4079992679  TIP3      3723            0.0000000000
     28543      3859  TIP3      H2             16.1832742705       22.4821138533       14.1434041943  TIP3      3723            0.0000000000
     28544      3860  TIP3      OH2            14.8803578998       26.4678720797        8.6331283427  TIP3      3724            0.0000000000
     28545      3860  TIP3      H1             14.4008902861       25.6957846840        8.9604885553  TIP3      3724            0.0000000000
     28546      3860  TIP3      H2             15.1263383684       26.9142268218        9.4651047167  TIP3      3724            0.0000000000
     28547      3861  TIP3      OH2             4.5134976780       32.2975111222        1.6843800083  TIP3      3725            0.0000000000
     28548      3861  TIP3      H1              5.3774713278       32.4783207222        2.1276758784  TIP3      3725            0.0000000000
     28549      3861  TIP3      H2              4.7946932194       31.6160399123        1.0503681235  TIP3      3725            0.0000000000
     28550      3862  TIP3      OH2             1.4125554595       24.8711180565        0.5454084634  TIP3      3726            0.0000000000
     28551      3862  TIP3      H1              2.2555824926       25.2614753988        0.8309633037  TIP3      3726            0.0000000000
     28552      3862  TIP3      H2              1.0098985489       25.6490624691        0.0991342701  TIP3      3726            0.0000000000
     28553      3863  TIP3      OH2            15.7579756483       35.9363431686       10.7357132146  TIP3      3727            0.0000000000
     28554      3863  TIP3      H1             15.8504324300       36.7434240993       10.1733661273  TIP3      3727            0.0000000000
     28555      3863  TIP3      H2             16.6141612732       35.5213607444       10.5537076449  TIP3      3727            0.0000000000
     28556      3864  TIP3      OH2             3.3988668089       19.8591623902        9.5201104682  TIP3      3728            0.0000000000
     28557      3864  TIP3      H1              3.2864019535       19.5753812749        8.5847125474  TIP3      3728            0.0000000000
     28558      3864  TIP3      H2              3.1964595706       18.9978021732        9.9531013817  TIP3      3728            0.0000000000
     28559      3865  TIP3      OH2             2.4681467350       33.7871768770        6.1301266361  TIP3      3729            0.0000000000
     28560      3865  TIP3      H1              1.5671671852       34.0190075795        6.3572420172  TIP3      3729            0.0000000000
     28561      3865  TIP3      H2              2.4585138318       33.9019963197        5.1639370122  TIP3      3729            0.0000000000
     28562      3866  TIP3      OH2             1.0847011729       36.1393854333       16.5301291458  TIP3      3730            0.0000000000
     28563      3866  TIP3      H1              1.5380176835       36.4845504106       17.3117353130  TIP3      3730            0.0000000000
     28564      3866  TIP3      H2              1.0827462232       35.1905667293       16.7268209712  TIP3      3730            0.0000000000
     28565      3867  TIP3      OH2             6.3123232493       35.2970501038       18.2372374186  TIP3      3731            0.0000000000
     28566      3867  TIP3      H1              7.2536251758       35.1098414477       18.3397068874  TIP3      3731            0.0000000000
     28567      3867  TIP3      H2              6.1114001272       34.9156449383       17.3593073788  TIP3      3731            0.0000000000
     28568      3868  TIP3      OH2            10.9381435169       34.7278504452        1.1713364098  TIP3      3732            0.0000000000
     28569      3868  TIP3      H1             10.2745217986       34.1420738768        0.7542536803  TIP3      3732            0.0000000000
     28570      3868  TIP3      H2             11.4076179493       35.0688934172        0.3915449020  TIP3      3732            0.0000000000
     28571      3869  TIP3      OH2            12.3701866407       34.1307368662       17.5353991761  TIP3      3733            0.0000000000
     28572      3869  TIP3      H1             12.2396760474       33.3390923006       18.0779848860  TIP3      3733            0.0000000000
     28573      3869  TIP3      H2             13.3126988331       34.3164917436       17.7826311879  TIP3      3733            0.0000000000
     28574      3870  TIP3      OH2            15.0865140315       34.4370968767        0.2512030047  TIP3      3734            0.0000000000
     28575      3870  TIP3      H1             14.8650109678       33.6684103941        0.8181139832  TIP3      3734            0.0000000000
     28576      3870  TIP3      H2             16.0327354233       34.2852433086        0.1118664872  TIP3      3734            0.0000000000
     28577      3871  TIP3      OH2             1.3134032809       30.3213665915       18.2358735208  TIP3      3735            0.0000000000
     28578      3871  TIP3      H1              1.0669399439       29.4286437299       18.5261750812  TIP3      3735            0.0000000000
     28579      3871  TIP3      H2              0.4456372293       30.6703587287       17.9526551824  TIP3      3735            0.0000000000
     28580      3872  TIP3      OH2             6.2279701907       30.5156093472        0.4180648398  TIP3      3736            0.0000000000
     28581      3872  TIP3      H1              6.7379514405       30.1148843740        1.1416371880  TIP3      3736            0.0000000000
     28582      3872  TIP3      H2              6.2477560708       29.7826570476       -0.2367158669  TIP3      3736            0.0000000000
     28583      3873  TIP3      OH2             7.8611072364       30.2091308059       16.9488195544  TIP3      3737            0.0000000000
     28584      3873  TIP3      H1              7.7374420476       30.7894678741       16.1717692128  TIP3      3737            0.0000000000
     28585      3873  TIP3      H2              7.7756631411       29.2968172612       16.6003839367  TIP3      3737            0.0000000000
     28586      3874  TIP3      OH2            13.6016711778       30.0357632843       14.8826615637  TIP3      3738            0.0000000000
     28587      3874  TIP3      H1             14.3656413709       30.6346043329       14.7448259664  TIP3      3738            0.0000000000
     28588      3874  TIP3      H2             12.9156833523       30.7129266377       15.0151150641  TIP3      3738            0.0000000000
     28589      3875  TIP3      OH2             0.9367238368       27.1397773881       17.1329244971  TIP3      3739            0.0000000000
     28590      3875  TIP3      H1              1.5637487092       26.4016870166       17.0519028326  TIP3      3739            0.0000000000
     28591      3875  TIP3      H2              1.1200621852       27.3792690767       18.0710052883  TIP3      3739            0.0000000000
     28592      3876  TIP3      OH2             7.0574628117       28.6700980922        2.5463358204  TIP3      3740            0.0000000000
     28593      3876  TIP3      H1              6.2697412046       28.2614103138        2.9470094629  TIP3      3740            0.0000000000
     28594      3876  TIP3      H2              7.3753998429       27.9630607266        1.9428171124  TIP3      3740            0.0000000000
     28595      3877  TIP3      OH2             5.9687254007       26.7822147738       14.3441146943  TIP3      3741            0.0000000000
     28596      3877  TIP3      H1              5.4368950577       27.5683436664       14.1085631224  TIP3      3741            0.0000000000
     28597      3877  TIP3      H2              6.6110463306       26.7705979103       13.6117924714  TIP3      3741            0.0000000000
     28598      3878  TIP3      OH2             7.8362997770       26.7218493452        0.7328971761  TIP3      3742            0.0000000000
     28599      3878  TIP3      H1              7.9225790920       26.9413095090       -0.2124106257  TIP3      3742            0.0000000000
     28600      3878  TIP3      H2              8.7847026020       26.7747323405        1.0109109895  TIP3      3742            0.0000000000
     28601      3879  TIP3      OH2            11.6984734005       29.4011911331       18.1523168631  TIP3      3743            0.0000000000
     28602      3879  TIP3      H1             12.3577963128       28.9448289277       17.6018995881  TIP3      3743            0.0000000000
     28603      3879  TIP3      H2             11.0417982837       28.7230694182       18.3493736946  TIP3      3743            0.0000000000
     28604      3880  TIP3      OH2            17.1417122379       29.4025323781       84.9189142657  TIP3      3744            0.0000000000
     28605      3880  TIP3      H1             16.8515545024       29.5699448815       84.0189423546  TIP3      3744            0.0000000000
     28606      3880  TIP3      H2             17.2482179454       30.2938389007       85.2750531318  TIP3      3744            0.0000000000
     28607      3881  TIP3      OH2             7.0716602728       24.0884095157       15.7358782715  TIP3      3745            0.0000000000
     28608      3881  TIP3      H1              6.8921495234       23.3443487923       15.1268991923  TIP3      3745            0.0000000000
     28609      3881  TIP3      H2              7.1659582631       24.8208411658       15.1080493369  TIP3      3745            0.0000000000
     28610      3882  TIP3      OH2             7.2400136063       22.0964229817       13.5599250661  TIP3      3746            0.0000000000
     28611      3882  TIP3      H1              7.8301868869       22.5093579000       12.8910043264  TIP3      3746            0.0000000000
     28612      3882  TIP3      H2              6.4111369948       22.1145644834       13.0480261550  TIP3      3746            0.0000000000
     28613      3883  TIP3      OH2             8.6123542837       27.9298013440       13.7323778264  TIP3      3747            0.0000000000
     28614      3883  TIP3      H1              9.1733548087       27.5510139295       13.0384252660  TIP3      3747            0.0000000000
     28615      3883  TIP3      H2              8.0818176180       28.5222681901       13.1537356444  TIP3      3747            0.0000000000
     28616      3884  TIP3      OH2            12.7927309172       24.9909287578       18.8306141961  TIP3      3748            0.0000000000
     28617      3884  TIP3      H1             12.9579430056       24.0483431940       18.6486299135  TIP3      3748            0.0000000000
     28618      3884  TIP3      H2             13.5532190648       25.2161329852       19.4013460006  TIP3      3748            0.0000000000
     28619      3885  TIP3      OH2            14.3123874540       28.4884382525       16.8865903319  TIP3      3749            0.0000000000
     28620      3885  TIP3      H1             14.0287956370       29.1146885856       16.1777757716  TIP3      3749            0.0000000000
     28621      3885  TIP3      H2             15.2844337481       28.4594026061       16.6919290182  TIP3      3749            0.0000000000
     28622      3886  TIP3      OH2             7.8611508822       19.3747801059       13.3427762984  TIP3      3750            0.0000000000
     28623      3886  TIP3      H1              7.6012191444       20.3039244415       13.5334223433  TIP3      3750            0.0000000000
     28624      3886  TIP3      H2              7.0915244551       19.0669709969       12.8394650411  TIP3      3750            0.0000000000
     28625      3887  TIP3      OH2             9.0258419392       23.6630948590       17.6740914796  TIP3      3751            0.0000000000
     28626      3887  TIP3      H1              8.3306134172       23.5150631911       18.3506373259  TIP3      3751            0.0000000000
     28627      3887  TIP3      H2              8.4951843528       23.4862891547       16.8632545231  TIP3      3751            0.0000000000
     28628      3888  TIP3      OH2            11.6117835592       22.6255884153       16.7053067377  TIP3      3752            0.0000000000
     28629      3888  TIP3      H1             10.7472853354       22.8632650097       17.0699846685  TIP3      3752            0.0000000000
     28630      3888  TIP3      H2             11.9708390635       22.0796613662       17.4406878675  TIP3      3752            0.0000000000
     28631      3889  TIP3      OH2            13.1453251770       21.3263867406       18.4223660570  TIP3      3753            0.0000000000
     28632      3889  TIP3      H1             13.4654235649       20.4225764064       18.5904389601  TIP3      3753            0.0000000000
     28633      3889  TIP3      H2             13.2340612849       21.7505641775       19.2959071509  TIP3      3753            0.0000000000
     28634      3890  TIP3      OH2             3.1172380982       22.7280162109       17.8760458716  TIP3      3754            0.0000000000
     28635      3890  TIP3      H1              3.1389502842       21.7560086018       17.8813245206  TIP3      3754            0.0000000000
     28636      3890  TIP3      H2              3.5316536969       22.9873515083       18.7228302869  TIP3      3754            0.0000000000
     28637      3891  TIP3      OH2             8.0540459549       19.1869920094       16.0732218658  TIP3      3755            0.0000000000
     28638      3891  TIP3      H1              8.6905851797       18.4875236300       16.3147917436  TIP3      3755            0.0000000000
     28639      3891  TIP3      H2              7.8460896146       18.9758474140       15.1429409777  TIP3      3755            0.0000000000
     28640      3892  TIP3      OH2             7.8919379062       19.9708851413       19.1085915330  TIP3      3756            0.0000000000
     28641      3892  TIP3      H1              7.7745952094       19.5830641515       18.2268879630  TIP3      3756            0.0000000000
     28642      3892  TIP3      H2              7.8131638606       20.9115760903       18.8732970203  TIP3      3756            0.0000000000
     28643      3893  TIP3      OH2             8.0804326603       37.1293994533        1.7656768947  TIP3      3757            0.0000000000
     28644      3893  TIP3      H1              8.9534948014       37.5584925402        1.8463010437  TIP3      3757            0.0000000000
     28645      3893  TIP3      H2              7.9745881313       37.1250344710        0.7996162624  TIP3      3757            0.0000000000
     28646      3894  TIP3      OH2             1.2948431884       32.4290205313        1.0022124608  TIP3      3758            0.0000000000
     28647      3894  TIP3      H1              1.4043051034       32.3732606887        1.9692251482  TIP3      3758            0.0000000000
     28648      3894  TIP3      H2              0.8505433381       31.6101499833        0.7749271562  TIP3      3758            0.0000000000
     28649      3895  TIP3      OH2            66.3702817232       37.1321972413        5.8706411351  TIP3      3759            0.0000000000
     28650      3895  TIP3      H1             65.4899400394       37.1387001778        6.2782592028  TIP3      3759            0.0000000000
     28651      3895  TIP3      H2             66.8543891544       36.5574976493        6.4866377368  TIP3      3759            0.0000000000
     28652      3896  TIP3      OH2             1.1751565659       35.5650024758        8.1207984192  TIP3      3760            0.0000000000
     28653      3896  TIP3      H1              0.6468846064       34.7895696491        8.3440181539  TIP3      3760            0.0000000000
     28654      3896  TIP3      H2              1.5484016440       35.7901633186        8.9953000672  TIP3      3760            0.0000000000
     28655      3897  TIP3      OH2            18.6915355976       36.4299230166       10.7143599057  TIP3      3761            0.0000000000
     28656      3897  TIP3      H1             18.6795584588       36.1574407075       11.6419898852  TIP3      3761            0.0000000000
     28657      3897  TIP3      H2             19.1154703664       37.2979215141       10.7884798705  TIP3      3761            0.0000000000
     28658      3898  TIP3      OH2            17.9357168072       35.8501543163       13.9162808429  TIP3      3762            0.0000000000
     28659      3898  TIP3      H1             17.4665467358       35.1575414062       13.4025000886  TIP3      3762            0.0000000000
     28660      3898  TIP3      H2             18.2968273819       35.3095620519       14.6427302248  TIP3      3762            0.0000000000
     28661      3899  TIP3      OH2            16.8905067219       31.8163359134       18.7348371641  TIP3      3763            0.0000000000
     28662      3899  TIP3      H1             16.0189992588       32.1830208249       18.9538446057  TIP3      3763            0.0000000000
     28663      3899  TIP3      H2             17.3597865430       32.5491709227       18.3136551091  TIP3      3763            0.0000000000
     28664      3900  TIP3      OH2            17.8290075279       29.5751918955        3.8239291145  TIP3      3764            0.0000000000
     28665      3900  TIP3      H1             18.6728661547       30.0633003555        3.9854094076  TIP3      3764            0.0000000000
     28666      3900  TIP3      H2             17.7504998360       29.0345158083        4.6464886121  TIP3      3764            0.0000000000
     28667      3901  TIP3      OH2            17.9501735834       27.8929821180        6.0529883258  TIP3      3765            0.0000000000
     28668      3901  TIP3      H1             17.4685060685       27.0760818658        6.3450719612  TIP3      3765            0.0000000000
     28669      3901  TIP3      H2             18.4439683385       28.1459868916        6.8600801661  TIP3      3765            0.0000000000
     28670      3902  TIP3      OH2            18.3874632937       30.5493618740       11.2953339226  TIP3      3766            0.0000000000
     28671      3902  TIP3      H1             18.8516033710       29.9025173250       10.7406047822  TIP3      3766            0.0000000000
     28672      3902  TIP3      H2             18.4927800125       31.3705925703       10.7764860887  TIP3      3766            0.0000000000
     28673      3903  TIP3      OH2            16.5181397320       33.5645772213       13.0076770655  TIP3      3767            0.0000000000
     28674      3903  TIP3      H1             15.7613296802       33.8555804988       13.5488331658  TIP3      3767            0.0000000000
     28675      3903  TIP3      H2             16.0870310696       33.3458673494       12.1472148205  TIP3      3767            0.0000000000
     28676      3904  TIP3      OH2            18.2248546197       27.5081975125        2.1215198390  TIP3      3768            0.0000000000
     28677      3904  TIP3      H1             17.4902858003       27.7575632189        1.5452309435  TIP3      3768            0.0000000000
     28678      3904  TIP3      H2             18.1841305910       28.2427904082        2.7771060528  TIP3      3768            0.0000000000
     28679      3905  TIP3      OH2            16.0474835462       24.7887913323        1.1897543516  TIP3      3769            0.0000000000
     28680      3905  TIP3      H1             16.6331874559       25.3929232648        0.7183067589  TIP3      3769            0.0000000000
     28681      3905  TIP3      H2             16.1960703164       23.9635136680        0.6802228725  TIP3      3769            0.0000000000
     28682      3906  TIP3      OH2            16.4630708157       25.7329870814        6.5705030420  TIP3      3770            0.0000000000
     28683      3906  TIP3      H1             15.9307902408       25.1289294802        6.0190156726  TIP3      3770            0.0000000000
     28684      3906  TIP3      H2             15.8725054881       25.9804970833        7.3259040810  TIP3      3770            0.0000000000
     28685      3907  TIP3      OH2             1.0634438777       28.1520052461       11.0272825664  TIP3      3771            0.0000000000
     28686      3907  TIP3      H1              1.0725157805       28.1952723635       10.0395780033  TIP3      3771            0.0000000000
     28687      3907  TIP3      H2              2.0211512467       27.9628253989       11.1847634729  TIP3      3771            0.0000000000
     28688      3908  TIP3      OH2            17.0391628221       28.4208419170       16.4581522240  TIP3      3772            0.0000000000
     28689      3908  TIP3      H1             17.4101576955       27.5033898313       16.3718437413  TIP3      3772            0.0000000000
     28690      3908  TIP3      H2             17.6399765452       28.9284461979       15.8853308245  TIP3      3772            0.0000000000
     28691      3909  TIP3      OH2            18.0089672740       26.0261288163       16.1515548406  TIP3      3773            0.0000000000
     28692      3909  TIP3      H1             17.2780272659       25.4954414745       16.5152012029  TIP3      3773            0.0000000000
     28693      3909  TIP3      H2             18.7778343402       25.4516568034       16.3672411878  TIP3      3773            0.0000000000
     28694      3910  TIP3      OH2            16.0986885233       22.4322053469       -0.2627102135  TIP3      3774            0.0000000000
     28695      3910  TIP3      H1             16.6298291164       21.9562720571        0.4159188306  TIP3      3774            0.0000000000
     28696      3910  TIP3      H2             15.1817234089       22.4038029497        0.0801387734  TIP3      3774            0.0000000000
     28697      3911  TIP3      OH2            15.0923300651       24.2271831306        4.8007197354  TIP3      3775            0.0000000000
     28698      3911  TIP3      H1             15.5158425836       23.4491160266        5.2294753100  TIP3      3775            0.0000000000
     28699      3911  TIP3      H2             15.7184718117       24.2985340915        4.0560055356  TIP3      3775            0.0000000000
     28700      3912  TIP3      OH2            16.7410824170       24.5196166721       10.5721687568  TIP3      3776            0.0000000000
     28701      3912  TIP3      H1             17.6875769821       24.5797007914       10.8515798241  TIP3      3776            0.0000000000
     28702      3912  TIP3      H2             16.3116736903       25.0072145539       11.2898354688  TIP3      3776            0.0000000000
     28703      3913  TIP3      OH2            16.8418292245       25.4161361348       13.6220769267  TIP3      3777            0.0000000000
     28704      3913  TIP3      H1             15.9985144546       25.9068876060       13.6854382339  TIP3      3777            0.0000000000
     28705      3913  TIP3      H2             17.3732266704       26.0690543805       13.1020043914  TIP3      3777            0.0000000000
     28706      3914  TIP3      OH2             1.1157254972       23.8718794412       16.3664780268  TIP3      3778            0.0000000000
     28707      3914  TIP3      H1              1.7874213769       23.3799400904       16.8867108271  TIP3      3778            0.0000000000
     28708      3914  TIP3      H2              0.3974719951       23.9186022478       17.0217018324  TIP3      3778            0.0000000000
     28709      3915  TIP3      OH2            18.9330176209       19.5883948896       18.6884937040  TIP3      3779            0.0000000000
     28710      3915  TIP3      H1             19.1888929537       18.9611484843       17.9799599467  TIP3      3779            0.0000000000
     28711      3915  TIP3      H2             18.9667952936       20.4086448908       18.1644915956  TIP3      3779            0.0000000000
     28712      3916  TIP3      OH2            16.4625657656       21.9308734289        5.1755396968  TIP3      3780            0.0000000000
     28713      3916  TIP3      H1             16.7244257784       21.3393545268        5.9125598422  TIP3      3780            0.0000000000
     28714      3916  TIP3      H2             15.8741797831       21.3334467415        4.6859139081  TIP3      3780            0.0000000000
     28715      3917  TIP3      OH2             1.9331558940       22.1416362024       10.0792779486  TIP3      3781            0.0000000000
     28716      3917  TIP3      H1              2.2620350860       21.2200269133       10.0091364997  TIP3      3781            0.0000000000
     28717      3917  TIP3      H2              2.7434252092       22.6311324242       10.3051542119  TIP3      3781            0.0000000000
     28718      3918  TIP3      OH2             0.4020772330       25.3238913112       10.5891975553  TIP3      3782            0.0000000000
     28719      3918  TIP3      H1              1.0734990973       24.9724002168        9.9580277836  TIP3      3782            0.0000000000
     28720      3918  TIP3      H2              0.7978596906       26.1648886429       10.8594887305  TIP3      3782            0.0000000000
     28721      3919  TIP3      OH2            18.2821168256       21.6955342666       17.1080687414  TIP3      3783            0.0000000000
     28722      3919  TIP3      H1             17.3742540493       21.8347894031       17.4414266573  TIP3      3783            0.0000000000
     28723      3919  TIP3      H2             18.0793945873       21.1300241813       16.3485134125  TIP3      3783            0.0000000000
     28724      3920  TIP3      OH2            18.0130403474       21.4535001766        1.4148665410  TIP3      3784            0.0000000000
     28725      3920  TIP3      H1             18.5482745354       20.8771982323        0.8400190363  TIP3      3784            0.0000000000
     28726      3920  TIP3      H2             18.5758713457       22.2444662146        1.4563989831  TIP3      3784            0.0000000000
     28727      3921  TIP3      OH2             1.0549295267       21.1482688900        4.4578198756  TIP3      3785            0.0000000000
     28728      3921  TIP3      H1              1.7314904836       21.4834394646        5.0781153969  TIP3      3785            0.0000000000
     28729      3921  TIP3      H2              1.2153426592       21.6954277094        3.6467052024  TIP3      3785            0.0000000000
     28730      3922  TIP3      OH2            15.3039175030       36.4790104566        6.9703642245  TIP3      3786            0.0000000000
     28731      3922  TIP3      H1             15.9160183873       36.0741750840        6.3248760568  TIP3      3786            0.0000000000
     28732      3922  TIP3      H2             15.8676761657       37.0912325131        7.4682529523  TIP3      3786            0.0000000000
     28733      3923  TIP3      OH2             0.5218151136       19.8698092701       13.0890486183  TIP3      3787            0.0000000000
     28734      3923  TIP3      H1             -0.3497402879       19.4294565465       13.1493863044  TIP3      3787            0.0000000000
     28735      3923  TIP3      H2              0.2439189206       20.7899435551       12.9474758208  TIP3      3787            0.0000000000
     28736      3924  TIP3      OH2             2.7595246539       33.1627612959       17.2149989314  TIP3      3788            0.0000000000
     28737      3924  TIP3      H1              2.6491242244       32.5778643315       16.4337465524  TIP3      3788            0.0000000000
     28738      3924  TIP3      H2              2.8655962993       32.5032895306       17.9162216374  TIP3      3788            0.0000000000
     28739      3925  TIP3      OH2             5.3794230633       34.6869763112       13.7192276884  TIP3      3789            0.0000000000
     28740      3925  TIP3      H1              5.2920949149       35.5923257120       13.3527861215  TIP3      3789            0.0000000000
     28741      3925  TIP3      H2              6.3465371981       34.5691632002       13.5754720194  TIP3      3789            0.0000000000
     28742      3926  TIP3      OH2             9.6065740655       35.8278904226       16.1216907079  TIP3      3790            0.0000000000
     28743      3926  TIP3      H1              9.6416134380       35.6069058318       17.0760668187  TIP3      3790            0.0000000000
     28744      3926  TIP3      H2             10.5577805496       36.0636453091       15.9896838849  TIP3      3790            0.0000000000
     28745      3927  TIP3      OH2            12.0781693154       36.7846171654       15.8588570421  TIP3      3791            0.0000000000
     28746      3927  TIP3      H1             12.5385191955       36.7950087231       15.0074458457  TIP3      3791            0.0000000000
     28747      3927  TIP3      H2             12.4545183416       37.5601687317       16.3172684497  TIP3      3791            0.0000000000
     28748      3928  TIP3      OH2            17.2771674368       19.3487565963       14.9794551399  TIP3      3792            0.0000000000
     28749      3928  TIP3      H1             16.6984882648       19.9362927839       14.4761423650  TIP3      3792            0.0000000000
     28750      3928  TIP3      H2             17.3284245970       18.5414081741       14.4176200467  TIP3      3792            0.0000000000
     28751      3929  TIP3      OH2             3.0053238438       37.7412742359       13.4296997385  TIP3      3793            0.0000000000
     28752      3929  TIP3      H1              2.2105564201       38.1829310333       13.0349055507  TIP3      3793            0.0000000000
     28753      3929  TIP3      H2              2.9563113335       38.0226614985       14.3613823644  TIP3      3793            0.0000000000
     28754      3930  TIP3      OH2             5.4134992039       37.1744741886       12.4554464350  TIP3      3794            0.0000000000
     28755      3930  TIP3      H1              4.5425149110       37.4325383421       12.8433084467  TIP3      3794            0.0000000000
     28756      3930  TIP3      H2              5.5015292477       37.8521897465       11.7592253216  TIP3      3794            0.0000000000
     28757      3931  TIP3      OH2            10.0668256569       36.7100176551       11.5772048770  TIP3      3795            0.0000000000
     28758      3931  TIP3      H1              9.4833466240       37.1053031365       10.9084960816  TIP3      3795            0.0000000000
     28759      3931  TIP3      H2             10.2798372880       37.4677788992       12.1582498995  TIP3      3795            0.0000000000
     28760      3932  TIP3      OH2            12.0968380639       35.6180676447       13.0809358367  TIP3      3796            0.0000000000
     28761      3932  TIP3      H1             11.4801646223       35.8220293272       12.3448509565  TIP3      3796            0.0000000000
     28762      3932  TIP3      H2             12.8056170191       36.2444917072       12.8404995522  TIP3      3796            0.0000000000
     28763      3933  TIP3      OH2            14.5176354578       36.9550259237       12.8652519469  TIP3      3797            0.0000000000
     28764      3933  TIP3      H1             14.8424054385       37.8271531597       12.5878843261  TIP3      3797            0.0000000000
     28765      3933  TIP3      H2             14.8776708099       36.3946348702       12.1253821027  TIP3      3797            0.0000000000
     28766      3934  TIP3      OH2             2.7752239396       36.0810227078       10.2908066801  TIP3      3798            0.0000000000
     28767      3934  TIP3      H1              2.8674248449       35.5630765769       11.1053070599  TIP3      3798            0.0000000000
     28768      3934  TIP3      H2              3.5568932401       35.7446532081        9.7843446511  TIP3      3798            0.0000000000
     28769      3935  TIP3      OH2             4.8656465216       34.9286964831        9.1433371849  TIP3      3799            0.0000000000
     28770      3935  TIP3      H1              4.7165660595       33.9637194977        9.2352021129  TIP3      3799            0.0000000000
     28771      3935  TIP3      H2              5.6686265181       35.0359067373        9.7012715087  TIP3      3799            0.0000000000
     28772      3936  TIP3      OH2             7.1061739573       34.8440007164       10.5185266393  TIP3      3800            0.0000000000
     28773      3936  TIP3      H1              7.3036145932       33.8981011241       10.3556168907  TIP3      3800            0.0000000000
     28774      3936  TIP3      H2              7.3148384960       34.9039458612       11.4657955913  TIP3      3800            0.0000000000
     28775      3937  TIP3      OH2            10.3326871709       20.5576382292        8.5544725125  TIP3      3801            0.0000000000
     28776      3937  TIP3      H1              9.4641665200       20.6450406460        8.9783964833  TIP3      3801            0.0000000000
     28777      3937  TIP3      H2             10.7343189786       19.8377366175        9.0471116191  TIP3      3801            0.0000000000
     28778      3938  TIP3      OH2            16.0607521661       19.1507773981        9.0894963330  TIP3      3802            0.0000000000
     28779      3938  TIP3      H1             16.6820278862       19.6764240573        8.5221882093  TIP3      3802            0.0000000000
     28780      3938  TIP3      H2             15.1747480572       19.4653903474        8.7773887002  TIP3      3802            0.0000000000
     28781      3939  TIP3      OH2            17.5259525975       20.2933812822        7.1736028752  TIP3      3803            0.0000000000
     28782      3939  TIP3      H1             18.1016753457       19.5762592558        6.8089944685  TIP3      3803            0.0000000000
     28783      3939  TIP3      H2             18.1960268808       21.0150164541        7.2631302335  TIP3      3803            0.0000000000
     28784      3940  TIP3      OH2             3.1353143601       19.0074423047        6.9551255949  TIP3      3804            0.0000000000
     28785      3940  TIP3      H1              2.3404823034       18.9640865677        6.3890894017  TIP3      3804            0.0000000000
     28786      3940  TIP3      H2              3.4582690127       18.0700900862        6.9681896089  TIP3      3804            0.0000000000
     28787      3941  TIP3      OH2             1.4113423182       19.1554461922        2.4885065646  TIP3      3805            0.0000000000
     28788      3941  TIP3      H1              1.9421489149       19.7634897408        1.9207334410  TIP3      3805            0.0000000000
     28789      3941  TIP3      H2              1.1885190274       19.7348561079        3.2425759613  TIP3      3805            0.0000000000
     28790      3942  TIP3      OH2             7.5873130949       19.1153995834        7.2474666455  TIP3      3806            0.0000000000
     28791      3942  TIP3      H1              8.3578765945       19.0830696796        6.6647689942  TIP3      3806            0.0000000000
     28792      3942  TIP3      H2              7.5660999646       20.0561843799        7.4941057992  TIP3      3806            0.0000000000
     28793      3943  TIP3      OH2            13.4872930831       19.5501114556        8.2345572702  TIP3      3807            0.0000000000
     28794      3943  TIP3      H1             13.0364532111       19.8032224192        7.4217803351  TIP3      3807            0.0000000000
     28795      3943  TIP3      H2             12.9941416652       18.7369286157        8.4928171801  TIP3      3807            0.0000000000
     28796      3944  TIP3      OH2            14.4393302480       19.3944777654        3.7866189024  TIP3      3808            0.0000000000
     28797      3944  TIP3      H1             13.9327349643       19.5694702135        2.9767315891  TIP3      3808            0.0000000000
     28798      3944  TIP3      H2             14.0158651796       18.5575961723        4.1020922016  TIP3      3808            0.0000000000
     28799      3945  TIP3      OH2             2.1674833895       35.6694349204        3.8193617318  TIP3      3809            0.0000000000
     28800      3945  TIP3      H1              1.3183016112       35.4196303426        3.4263362279  TIP3      3809            0.0000000000
     28801      3945  TIP3      H2              2.1171631113       36.6310938383        3.7313719349  TIP3      3809            0.0000000000
     28802      3946  TIP3      OH2             3.2813271582       20.6847032452        1.2066328078  TIP3      3810            0.0000000000
     28803      3946  TIP3      H1              3.8084528983       20.4866977332        0.4242568167  TIP3      3810            0.0000000000
     28804      3946  TIP3      H2              3.9876174493       20.9825536058        1.8045767756  TIP3      3810            0.0000000000
     28805      3947  TIP3      OH2             8.7951585092       21.7660767115        3.4607024497  TIP3      3811            0.0000000000
     28806      3947  TIP3      H1              9.2399412697       21.1982489488        4.1007854137  TIP3      3811            0.0000000000
     28807      3947  TIP3      H2              8.8783327254       22.6186857921        3.9414915824  TIP3      3811            0.0000000000
     28808      3948  TIP3      OH2            10.7915115573       37.5088055927        1.8235991682  TIP3      3812            0.0000000000
     28809      3948  TIP3      H1             11.6163166896       37.6900971335        1.3456756044  TIP3      3812            0.0000000000
     28810      3948  TIP3      H2             10.8348090599       36.5241134696        1.8021973460  TIP3      3812            0.0000000000
     28811      3949  TIP3      OH2            16.9740380164       35.5869975407        5.0274161448  TIP3      3813            0.0000000000
     28812      3949  TIP3      H1             16.8851316674       34.8062566190        4.4248239135  TIP3      3813            0.0000000000
     28813      3949  TIP3      H2             16.8560361803       36.3094883375        4.3765531191  TIP3      3813            0.0000000000
     28814      3950  TIP3      OH2             2.6555852715       20.0666728644       16.1819059031  TIP3      3814            0.0000000000
     28815      3950  TIP3      H1              1.9657912148       19.4077200299       16.3551333725  TIP3      3814            0.0000000000
     28816      3950  TIP3      H2              3.2879754410       19.9183324853       16.9127318633  TIP3      3814            0.0000000000
     28817      3951  TIP3      OH2             4.8775248023       19.6854342617       18.4473304597  TIP3      3815            0.0000000000
     28818      3951  TIP3      H1              5.6357080870       19.1551804395       18.1553467944  TIP3      3815            0.0000000000
     28819      3951  TIP3      H2              4.3956374893       19.0072693428       18.9762256569  TIP3      3815            0.0000000000
     28820      3952  TIP3      OH2             3.7014495403       36.0905668882        0.7263653789  TIP3      3816            0.0000000000
     28821      3952  TIP3      H1              2.9445957335       36.5461839091        1.1296702340  TIP3      3816            0.0000000000
     28822      3952  TIP3      H2              3.7653826079       35.2561540497        1.2106888747  TIP3      3816            0.0000000000
     28823      3953  TIP3      OH2            13.4568650544       18.4917420149       18.6787567807  TIP3      3817            0.0000000000
     28824      3953  TIP3      H1             13.7030864236       17.7361883809       19.2338178794  TIP3      3817            0.0000000000
     28825      3953  TIP3      H2             14.2694389616       18.5572931850       18.1291665333  TIP3      3817            0.0000000000
     28826      3954  TIP3      OH2            16.3874637434       35.0154982445       16.7276110422  TIP3      3818            0.0000000000
     28827      3954  TIP3      H1             15.7442400721       34.8826346542       15.9901335458  TIP3      3818            0.0000000000
     28828      3954  TIP3      H2             16.1825110209       35.9371129468       16.9836109975  TIP3      3818            0.0000000000
     28829      3955  TIP3      OH2            31.3468021077       28.7756055769        6.8232975006  TIP3      3819            0.0000000000
     28830      3955  TIP3      H1             31.0997682425       29.7248700808        6.8458479004  TIP3      3819            0.0000000000
     28831      3955  TIP3      H2             30.6812773276       28.4108417384        6.2246757425  TIP3      3819            0.0000000000
     28832      3956  TIP3      OH2            29.8117753155       27.5835727888        9.9143748983  TIP3      3820            0.0000000000
     28833      3956  TIP3      H1             29.7016285989       27.1897689131       10.8041978940  TIP3      3820            0.0000000000
     28834      3956  TIP3      H2             28.9692756926       27.3536839465        9.4790805052  TIP3      3820            0.0000000000
     28835      3957  TIP3      OH2            22.4020820217       27.6710108516       11.9636034485  TIP3      3821            0.0000000000
     28836      3957  TIP3      H1             22.0419528620       26.9245510180       12.4679104763  TIP3      3821            0.0000000000
     28837      3957  TIP3      H2             22.8522948592       28.1862116558       12.6502973043  TIP3      3821            0.0000000000
     28838      3958  TIP3      OH2            33.0187925989       30.9926087377        8.6255393606  TIP3      3822            0.0000000000
     28839      3958  TIP3      H1             32.7047831550       30.3455164102        9.2709362732  TIP3      3822            0.0000000000
     28840      3958  TIP3      H2             33.4297743023       31.6620551018        9.2168348173  TIP3      3822            0.0000000000
     28841      3959  TIP3      OH2            23.2401604372       32.1179994375       10.1050118815  TIP3      3823            0.0000000000
     28842      3959  TIP3      H1             22.9885367467       31.2243730463        9.7847279313  TIP3      3823            0.0000000000
     28843      3959  TIP3      H2             24.2181447669       32.0535731169       10.0579706262  TIP3      3823            0.0000000000
     28844      3960  TIP3      OH2            19.9849714737       25.2008647903        5.5675247465  TIP3      3824            0.0000000000
     28845      3960  TIP3      H1             19.5054196229       25.8836127966        6.0581493075  TIP3      3824            0.0000000000
     28846      3960  TIP3      H2             19.3311132092       25.0413243312        4.8579484252  TIP3      3824            0.0000000000
     28847      3961  TIP3      OH2            19.8209919813       27.8442515545        8.1485141393  TIP3      3825            0.0000000000
     28848      3961  TIP3      H1             20.1715397589       26.9236341354        8.2190841600  TIP3      3825            0.0000000000
     28849      3961  TIP3      H2             20.5788459366       28.3289504140        7.7667421202  TIP3      3825            0.0000000000
     28850      3962  TIP3      OH2            30.6336553245       36.3315028530        8.5479613706  TIP3      3826            0.0000000000
     28851      3962  TIP3      H1             31.2272081971       35.6968531345        8.0819748134  TIP3      3826            0.0000000000
     28852      3962  TIP3      H2             30.1413090704       35.7410549336        9.1279559577  TIP3      3826            0.0000000000
     28853      3963  TIP3      OH2            27.6655491483       30.5268649240       11.2990810908  TIP3      3827            0.0000000000
     28854      3963  TIP3      H1             28.1587825025       30.2482158880       10.5160003749  TIP3      3827            0.0000000000
     28855      3963  TIP3      H2             28.4177772962       30.7578256222       11.8921703295  TIP3      3827            0.0000000000
     28856      3964  TIP3      OH2            36.9300858260       21.8602811711       10.7784562244  TIP3      3828            0.0000000000
     28857      3964  TIP3      H1             37.0021981144       22.4017139825       11.5762968995  TIP3      3828            0.0000000000
     28858      3964  TIP3      H2             37.7958744133       22.0254128287       10.3585874123  TIP3      3828            0.0000000000
     28859      3965  TIP3      OH2            31.7967687246       24.9286521617       11.3735717967  TIP3      3829            0.0000000000
     28860      3965  TIP3      H1             31.8090539190       23.9692112436       11.5539492295  TIP3      3829            0.0000000000
     28861      3965  TIP3      H2             31.7014841483       24.8862160883       10.4009976402  TIP3      3829            0.0000000000
     28862      3966  TIP3      OH2            24.8663651911       22.6319491043        7.9100324852  TIP3      3830            0.0000000000
     28863      3966  TIP3      H1             24.9442282258       23.4392991314        7.3586440291  TIP3      3830            0.0000000000
     28864      3966  TIP3      H2             24.2521266094       22.1075135628        7.3456181768  TIP3      3830            0.0000000000
     28865      3967  TIP3      OH2            32.2052432639       22.8606726407        6.4768635623  TIP3      3831            0.0000000000
     28866      3967  TIP3      H1             32.7340610479       22.6180923227        7.2694730126  TIP3      3831            0.0000000000
     28867      3967  TIP3      H2             32.4983340186       23.7687967291        6.3537996147  TIP3      3831            0.0000000000
     28868      3968  TIP3      OH2            20.7790933052       25.3961020518        8.7715387834  TIP3      3832            0.0000000000
     28869      3968  TIP3      H1             21.4168507507       25.1383744610        9.4530158717  TIP3      3832            0.0000000000
     28870      3968  TIP3      H2             21.1803713378       24.9554010261        7.9917766993  TIP3      3832            0.0000000000
     28871      3969  TIP3      OH2            25.3734687439       26.7693762424        8.1393911530  TIP3      3833            0.0000000000
     28872      3969  TIP3      H1             26.2789229322       26.5133136318        8.4291304965  TIP3      3833            0.0000000000
     28873      3969  TIP3      H2             25.2316867832       26.0880777503        7.4433078926  TIP3      3833            0.0000000000
     28874      3970  TIP3      OH2            37.1715903197       23.4690247530       13.5866025567  TIP3      3834            0.0000000000
     28875      3970  TIP3      H1             36.6804317026       24.2644554592       13.2934718182  TIP3      3834            0.0000000000
     28876      3970  TIP3      H2             36.6026392784       23.1870328906       14.3221849027  TIP3      3834            0.0000000000
     28877      3971  TIP3      OH2            23.7389144876       21.8242383071       12.1033695332  TIP3      3835            0.0000000000
     28878      3971  TIP3      H1             23.5965039758       22.3835247298       11.3012507779  TIP3      3835            0.0000000000
     28879      3971  TIP3      H2             23.0126062491       22.1622379467       12.6616129659  TIP3      3835            0.0000000000
     28880      3972  TIP3      OH2            30.2380305855       31.0701249115        5.7789197128  TIP3      3836            0.0000000000
     28881      3972  TIP3      H1             29.9303140815       31.0572681075        4.8586704470  TIP3      3836            0.0000000000
     28882      3972  TIP3      H2             29.7578879644       31.8501230154        6.1211260707  TIP3      3836            0.0000000000
     28883      3973  TIP3      OH2            25.1701559970       29.5959072856       11.7214739832  TIP3      3837            0.0000000000
     28884      3973  TIP3      H1             24.6498036389       30.2558491779       12.2337997588  TIP3      3837            0.0000000000
     28885      3973  TIP3      H2             25.9850136677       30.1207470776       11.5592382660  TIP3      3837            0.0000000000
     28886      3974  TIP3      OH2            33.8324160247       22.7166512296        8.6575551331  TIP3      3838            0.0000000000
     28887      3974  TIP3      H1             33.4273804981       22.1630629587        9.3349783969  TIP3      3838            0.0000000000
     28888      3974  TIP3      H2             34.7106327387       22.8916655852        9.0368205219  TIP3      3838            0.0000000000
     28889      3975  TIP3      OH2            23.2818572073       23.6192383408       10.0833881923  TIP3      3839            0.0000000000
     28890      3975  TIP3      H1             23.7848706057       24.3402604092       10.5231812411  TIP3      3839            0.0000000000
     28891      3975  TIP3      H2             23.8677794469       23.3779691160        9.3279502073  TIP3      3839            0.0000000000
     28892      3976  TIP3      OH2            24.3253246456       31.8216613940       13.0393620454  TIP3      3840            0.0000000000
     28893      3976  TIP3      H1             24.1369201617       32.5598136215       12.4461966306  TIP3      3840            0.0000000000
     28894      3976  TIP3      H2             23.4367992335       31.7211240963       13.4608648481  TIP3      3840            0.0000000000
     28895      3977  TIP3      OH2            20.1323107619       30.8744503474        4.0679045595  TIP3      3841            0.0000000000
     28896      3977  TIP3      H1             20.0411034698       31.3042457850        3.1863125904  TIP3      3841            0.0000000000
     28897      3977  TIP3      H2             20.1366098794       31.6654774341        4.6595522105  TIP3      3841            0.0000000000
     28898      3978  TIP3      OH2            33.9377444839       32.8583239171       10.3749366676  TIP3      3842            0.0000000000
     28899      3978  TIP3      H1             33.0566718945       32.9622530386       10.8017773415  TIP3      3842            0.0000000000
     28900      3978  TIP3      H2             34.1465409533       33.7994867137       10.2239563507  TIP3      3842            0.0000000000
     28901      3979  TIP3      OH2            34.5663572047       22.1474915365       12.6041550980  TIP3      3843            0.0000000000
     28902      3979  TIP3      H1             34.0480418062       21.3143460062       12.5629833135  TIP3      3843            0.0000000000
     28903      3979  TIP3      H2             35.0075150025       22.2218823016       11.7417621266  TIP3      3843            0.0000000000
     28904      3980  TIP3      OH2            26.9269549684       18.8732158621       10.0379814483  TIP3      3844            0.0000000000
     28905      3980  TIP3      H1             26.5034818925       18.0069947067        9.8798738266  TIP3      3844            0.0000000000
     28906      3980  TIP3      H2             26.1219021108       19.4474028612       10.0759466333  TIP3      3844            0.0000000000
     28907      3981  TIP3      OH2            32.3128389868       34.6234925821        7.1905004144  TIP3      3845            0.0000000000
     28908      3981  TIP3      H1             32.6021960679       33.7398145639        6.8762257947  TIP3      3845            0.0000000000
     28909      3981  TIP3      H2             33.0927943316       35.1830436651        6.9605692037  TIP3      3845            0.0000000000
     28910      3982  TIP3      OH2            33.3857605336       32.2386333622        5.8353573148  TIP3      3846            0.0000000000
     28911      3982  TIP3      H1             33.2749443077       31.5982476545        5.1114357134  TIP3      3846            0.0000000000
     28912      3982  TIP3      H2             33.2385589428       31.6882977981        6.6269204870  TIP3      3846            0.0000000000
     28913      3983  TIP3      OH2            35.0968847917       31.3234032697       14.5884079919  TIP3      3847            0.0000000000
     28914      3983  TIP3      H1             35.2432419436       30.5657978624       13.9756919228  TIP3      3847            0.0000000000
     28915      3983  TIP3      H2             35.2212473225       32.0724000574       13.9655822924  TIP3      3847            0.0000000000
     28916      3984  TIP3      OH2            29.4332894270       27.9880448228        4.0301931366  TIP3      3848            0.0000000000
     28917      3984  TIP3      H1             28.8398963444       28.7622113061        3.9040621367  TIP3      3848            0.0000000000
     28918      3984  TIP3      H2             30.3090019060       28.3212873182        3.7312061909  TIP3      3848            0.0000000000
     28919      3985  TIP3      OH2            29.5713327332       26.9865993735        1.3823860034  TIP3      3849            0.0000000000
     28920      3985  TIP3      H1             30.0506856099       27.2593320749        2.1903982859  TIP3      3849            0.0000000000
     28921      3985  TIP3      H2             29.8169132949       26.0509548286        1.3559614545  TIP3      3849            0.0000000000
     28922      3986  TIP3      OH2            37.1106440935       27.5769743569       12.5736002527  TIP3      3850            0.0000000000
     28923      3986  TIP3      H1             36.3852659023       28.2375011776       12.5234987462  TIP3      3850            0.0000000000
     28924      3986  TIP3      H2             37.6677714246       27.8994649640       11.8285591189  TIP3      3850            0.0000000000
     28925      3987  TIP3      OH2            33.5971946661       28.1170910951        5.3610405341  TIP3      3851            0.0000000000
     28926      3987  TIP3      H1             32.8685586789       28.3201126587        5.9966604606  TIP3      3851            0.0000000000
     28927      3987  TIP3      H2             34.0690437691       27.3760746433        5.8128646507  TIP3      3851            0.0000000000
     28928      3988  TIP3      OH2            32.8080611054       26.1926585346       14.4249258905  TIP3      3852            0.0000000000
     28929      3988  TIP3      H1             32.7024568740       27.1398543952       14.6052958975  TIP3      3852            0.0000000000
     28930      3988  TIP3      H2             32.2399116291       26.1389953935       13.6358557636  TIP3      3852            0.0000000000
     28931      3989  TIP3      OH2            24.2040825559       28.7332921315        6.8785861371  TIP3      3853            0.0000000000
     28932      3989  TIP3      H1             24.1655349253       28.3043442496        5.9966929590  TIP3      3853            0.0000000000
     28933      3989  TIP3      H2             24.6093081684       28.0176306425        7.4150260476  TIP3      3853            0.0000000000
     28934      3990  TIP3      OH2            25.9451206050       32.0565078395        9.8380177291  TIP3      3854            0.0000000000
     28935      3990  TIP3      H1             26.0739355859       31.7589904403        8.9262302922  TIP3      3854            0.0000000000
     28936      3990  TIP3      H2             26.5648212537       31.4777852426       10.3375146496  TIP3      3854            0.0000000000
     28937      3991  TIP3      OH2            24.9269118319       27.1582934240       10.7168100119  TIP3      3855            0.0000000000
     28938      3991  TIP3      H1             25.0701653400       27.3298664477        9.7664483323  TIP3      3855            0.0000000000
     28939      3991  TIP3      H2             24.9488852288       28.0616231824       11.1140173277  TIP3      3855            0.0000000000
     28940      3992  TIP3      OH2            31.5516087786       33.1307775249       11.4799214332  TIP3      3856            0.0000000000
     28941      3992  TIP3      H1             30.8738138609       33.6932571737       11.8771443892  TIP3      3856            0.0000000000
     28942      3992  TIP3      H2             31.3074255725       32.2541134506       11.8239009610  TIP3      3856            0.0000000000
     28943      3993  TIP3      OH2            25.8216080484       31.8811487577       15.5132116820  TIP3      3857            0.0000000000
     28944      3993  TIP3      H1             25.2392937949       32.5326564838       15.9681553305  TIP3      3857            0.0000000000
     28945      3993  TIP3      H2             25.3545933409       31.8304485703       14.6500552966  TIP3      3857            0.0000000000
     28946      3994  TIP3      OH2            31.8610585962       27.8380870757        3.1612062691  TIP3      3858            0.0000000000
     28947      3994  TIP3      H1             32.6046586279       28.0374768084        3.7608877446  TIP3      3858            0.0000000000
     28948      3994  TIP3      H2             32.2154860798       28.1138469056        2.2813381127  TIP3      3858            0.0000000000
     28949      3995  TIP3      OH2            22.7196140164       28.3468287180       14.7380845081  TIP3      3859            0.0000000000
     28950      3995  TIP3      H1             22.6701657054       28.9381873897       15.5236665962  TIP3      3859            0.0000000000
     28951      3995  TIP3      H2             21.7915149449       28.0125123793       14.7092313014  TIP3      3859            0.0000000000
     28952      3996  TIP3      OH2            29.1045456695       33.4447496208        6.7364208561  TIP3      3860            0.0000000000
     28953      3996  TIP3      H1             29.8335398527       33.7267458374        7.2892175083  TIP3      3860            0.0000000000
     28954      3996  TIP3      H2             29.1155489893       34.0855523094        6.0129503382  TIP3      3860            0.0000000000
     28955      3997  TIP3      OH2            24.2031103109       33.7925924919       16.3798440781  TIP3      3861            0.0000000000
     28956      3997  TIP3      H1             24.0158920762       34.2154227303       15.5072374311  TIP3      3861            0.0000000000
     28957      3997  TIP3      H2             23.3062429831       33.4674667987       16.6153886611  TIP3      3861            0.0000000000
     28958      3998  TIP3      OH2            35.9111281990       19.0097775614        3.2501442829  TIP3      3862            0.0000000000
     28959      3998  TIP3      H1             34.9532705830       19.1659701178        3.4073764202  TIP3      3862            0.0000000000
     28960      3998  TIP3      H2             36.1575122317       19.8118038613        2.7533273209  TIP3      3862            0.0000000000
     28961      3999  TIP3      OH2            23.4619819101       27.6145062701        4.4630142752  TIP3      3863            0.0000000000
     28962      3999  TIP3      H1             23.0238138735       28.4087124721        4.0759685535  TIP3      3863            0.0000000000
     28963      3999  TIP3      H2             22.8380416384       26.9053846884        4.2742043362  TIP3      3863            0.0000000000
     28964      4000  TIP3      OH2            36.6654652038       33.1738682960        0.8471714766  TIP3      3864            0.0000000000
     28965      4000  TIP3      H1             36.9931252829       34.0485958297        0.6051689473  TIP3      3864            0.0000000000
     28966      4000  TIP3      H2             37.5136117269       32.7737847043        1.1399932341  TIP3      3864            0.0000000000
     28967      4001  TIP3      OH2            19.9154757683       30.5449097835       13.7082748832  TIP3      3865            0.0000000000
     28968      4001  TIP3      H1             19.3929142775       30.6449654193       12.8789279716  TIP3      3865            0.0000000000
     28969      4001  TIP3      H2             20.2352927123       29.6347996925       13.5766647773  TIP3      3865            0.0000000000
     28970      4002  TIP3      OH2            19.9061456034       32.6856628542       10.3478809692  TIP3      3866            0.0000000000
     28971      4002  TIP3      H1             20.8330327729       32.4080699438       10.3324564237  TIP3      3866            0.0000000000
     28972      4002  TIP3      H2             19.9498962949       33.4376005989       10.9604812883  TIP3      3866            0.0000000000
     28973      4003  TIP3      OH2            37.5108309125       33.6782162925       16.2297199482  TIP3      3867            0.0000000000
     28974      4003  TIP3      H1             37.3123086566       32.7437591503       16.3657291378  TIP3      3867            0.0000000000
     28975      4003  TIP3      H2             36.6861710319       34.0484237054       16.6251978811  TIP3      3867            0.0000000000
     28976      4004  TIP3      OH2            28.4962637671       32.9696018158       15.1965626119  TIP3      3868            0.0000000000
     28977      4004  TIP3      H1             28.5845326667       33.8799483408       15.5343446781  TIP3      3868            0.0000000000
     28978      4004  TIP3      H2             27.5523704767       32.7679018948       15.3229476370  TIP3      3868            0.0000000000
     28979      4005  TIP3      OH2            28.9999062520       36.8979255015        4.6163376891  TIP3      3869            0.0000000000
     28980      4005  TIP3      H1             28.9884252557       37.0931921520        3.6553350968  TIP3      3869            0.0000000000
     28981      4005  TIP3      H2             29.0892303192       37.8064634244        4.9881244319  TIP3      3869            0.0000000000
     28982      4006  TIP3      OH2            22.6771877671       35.5867689257        6.7731785036  TIP3      3870            0.0000000000
     28983      4006  TIP3      H1             22.9185760004       35.2047162654        7.6479042413  TIP3      3870            0.0000000000
     28984      4006  TIP3      H2             21.7774029689       35.2566675285        6.6403129316  TIP3      3870            0.0000000000
     28985      4007  TIP3      OH2            32.3816934505       36.3802922137        1.7871314752  TIP3      3871            0.0000000000
     28986      4007  TIP3      H1             32.8282740221       35.5557198788        1.5236977285  TIP3      3871            0.0000000000
     28987      4007  TIP3      H2             32.1927965617       36.2000590706        2.7364653741  TIP3      3871            0.0000000000
     28988      4008  TIP3      OH2            31.7899580087       36.1768335984        4.4430589100  TIP3      3872            0.0000000000
     28989      4008  TIP3      H1             30.8678004206       36.3657524767        4.7004320702  TIP3      3872            0.0000000000
     28990      4008  TIP3      H2             31.9339406210       35.3209165340        4.8785823901  TIP3      3872            0.0000000000
     28991      4009  TIP3      OH2            34.5344491559       25.0490547831       16.5752225783  TIP3      3873            0.0000000000
     28992      4009  TIP3      H1             34.0739168180       25.5883767259       15.9016374103  TIP3      3873            0.0000000000
     28993      4009  TIP3      H2             34.4938521524       24.1680711948       16.1533394424  TIP3      3873            0.0000000000
     28994      4010  TIP3      OH2            22.2019341521       31.7145892375       14.4871421071  TIP3      3874            0.0000000000
     28995      4010  TIP3      H1             22.2289395722       31.6630635488       15.4591236905  TIP3      3874            0.0000000000
     28996      4010  TIP3      H2             21.3384271577       31.2875559690       14.2895891433  TIP3      3874            0.0000000000
     28997      4011  TIP3      OH2            24.5929568996       20.0145467157       10.3506631547  TIP3      3875            0.0000000000
     28998      4011  TIP3      H1             23.6547082518       19.9982718489       10.0772787254  TIP3      3875            0.0000000000
     28999      4011  TIP3      H2             24.5314571718       20.6405440755       11.0993883348  TIP3      3875            0.0000000000
     29000      4012  TIP3      OH2            29.2204524468       19.6992631060       13.8160330176  TIP3      3876            0.0000000000
     29001      4012  TIP3      H1             29.5682958166       19.3053383721       14.6443514090  TIP3      3876            0.0000000000
     29002      4012  TIP3      H2             28.2509616779       19.7316880305       13.9570101639  TIP3      3876            0.0000000000
     29003      4013  TIP3      OH2            32.6747529680       23.4083027587       14.8626847470  TIP3      3877            0.0000000000
     29004      4013  TIP3      H1             31.8826698980       23.0564551237       15.3130378571  TIP3      3877            0.0000000000
     29005      4013  TIP3      H2             32.3912399659       24.3190347750       14.6545665833  TIP3      3877            0.0000000000
     29006      4014  TIP3      OH2            32.9678923522       28.7542089250        0.9671776380  TIP3      3878            0.0000000000
     29007      4014  TIP3      H1             33.3471618081       28.5917433244        0.0894164764  TIP3      3878            0.0000000000
     29008      4014  TIP3      H2             33.1421942525       29.6976896711        1.0745445893  TIP3      3878            0.0000000000
     29009      4015  TIP3      OH2            29.0034157098       22.8178142978        1.1088678116  TIP3      3879            0.0000000000
     29010      4015  TIP3      H1             28.6452697958       22.6444211187        1.9995716047  TIP3      3879            0.0000000000
     29011      4015  TIP3      H2             28.4382639742       22.2364055713        0.5876828254  TIP3      3879            0.0000000000
     29012      4016  TIP3      OH2            24.9400355361       24.8528148563       11.9460746791  TIP3      3880            0.0000000000
     29013      4016  TIP3      H1             24.1008746372       24.9958244323       12.4303858539  TIP3      3880            0.0000000000
     29014      4016  TIP3      H2             24.9570289313       25.7064331856       11.4386997141  TIP3      3880            0.0000000000
     29015      4017  TIP3      OH2            24.7231532927       24.8564155674        6.3729920152  TIP3      3881            0.0000000000
     29016      4017  TIP3      H1             23.7518782158       24.7322910963        6.3922332449  TIP3      3881            0.0000000000
     29017      4017  TIP3      H2             24.9667089978       24.6044499912        5.4562130417  TIP3      3881            0.0000000000
     29018      4018  TIP3      OH2            30.3005553932       25.9496002388        5.5530302975  TIP3      3882            0.0000000000
     29019      4018  TIP3      H1             29.8739903095       26.6694864166        5.0347700198  TIP3      3882            0.0000000000
     29020      4018  TIP3      H2             30.8581014566       25.5632601167        4.8386550644  TIP3      3882            0.0000000000
     29021      4019  TIP3      OH2            29.0624540024       26.0950827437       16.5892738555  TIP3      3883            0.0000000000
     29022      4019  TIP3      H1             28.6515630298       25.2393133649       16.8492666068  TIP3      3883            0.0000000000
     29023      4019  TIP3      H2             29.7171151599       26.1933527235       17.3022444403  TIP3      3883            0.0000000000
     29024      4020  TIP3      OH2            31.5822113545       25.3977313016        8.5305453643  TIP3      3884            0.0000000000
     29025      4020  TIP3      H1             31.2196870049       26.2242753923        8.1626665954  TIP3      3884            0.0000000000
     29026      4020  TIP3      H2             31.2802818728       24.7660424799        7.8631810369  TIP3      3884            0.0000000000
     29027      4021  TIP3      OH2            22.2849166684       24.9743886772       12.8161554384  TIP3      3885            0.0000000000
     29028      4021  TIP3      H1             22.5248354215       25.4849526038       13.6061004980  TIP3      3885            0.0000000000
     29029      4021  TIP3      H2             21.8055457097       24.1967878339       13.1866602359  TIP3      3885            0.0000000000
     29030      4022  TIP3      OH2            25.5299036607       22.8528078420        0.7682835057  TIP3      3886            0.0000000000
     29031      4022  TIP3      H1             25.1012014018       22.2978878279        1.4536758627  TIP3      3886            0.0000000000
     29032      4022  TIP3      H2             25.2739402560       23.7469617277        1.0489554598  TIP3      3886            0.0000000000
     29033      4023  TIP3      OH2            19.3535436500       22.3110750189        7.7362952896  TIP3      3887            0.0000000000
     29034      4023  TIP3      H1             19.8452807046       22.3119375307        8.5901976590  TIP3      3887            0.0000000000
     29035      4023  TIP3      H2             19.4450219927       23.2207669063        7.4221819320  TIP3      3887            0.0000000000
     29036      4024  TIP3      OH2            20.0954002085       22.9759680251        2.6898371074  TIP3      3888            0.0000000000
     29037      4024  TIP3      H1             20.6965077005       23.4624054461        2.0902452176  TIP3      3888            0.0000000000
     29038      4024  TIP3      H2             19.5173598742       23.6967074782        3.0081421142  TIP3      3888            0.0000000000
     29039      4025  TIP3      OH2            30.2939915350       26.9308697301       12.5676337538  TIP3      3889            0.0000000000
     29040      4025  TIP3      H1             30.9006794173       26.3379131865       12.0705802182  TIP3      3889            0.0000000000
     29041      4025  TIP3      H2             29.7845060401       26.2613652687       13.0765139054  TIP3      3889            0.0000000000
     29042      4026  TIP3      OH2            27.7346549839       22.5838054739        7.7865448989  TIP3      3890            0.0000000000
     29043      4026  TIP3      H1             26.7817290824       22.5020514122        8.0063939316  TIP3      3890            0.0000000000
     29044      4026  TIP3      H2             28.1418141998       21.8926303451        8.3558722498  TIP3      3890            0.0000000000
     29045      4027  TIP3      OH2            22.1448891680       24.0870606503        6.6958860774  TIP3      3891            0.0000000000
     29046      4027  TIP3      H1             21.3838392399       24.3305118806        6.1163713057  TIP3      3891            0.0000000000
     29047      4027  TIP3      H2             22.3953235268       23.2244397809        6.3069921556  TIP3      3891            0.0000000000
     29048      4028  TIP3      OH2            25.6809843843       24.3452563322        3.8949335699  TIP3      3892            0.0000000000
     29049      4028  TIP3      H1             26.5512513240       24.6980068883        4.1683606786  TIP3      3892            0.0000000000
     29050      4028  TIP3      H2             25.3507121802       24.9938671769        3.2390783553  TIP3      3892            0.0000000000
     29051      4029  TIP3      OH2            31.5363314005       21.7668502074       10.5707527585  TIP3      3893            0.0000000000
     29052      4029  TIP3      H1             31.7276883860       21.2621464909       11.3944184063  TIP3      3893            0.0000000000
     29053      4029  TIP3      H2             31.6927814348       21.0810283981        9.9161045071  TIP3      3893            0.0000000000
     29054      4030  TIP3      OH2            24.5046019072       25.6733137135        1.5629461321  TIP3      3894            0.0000000000
     29055      4030  TIP3      H1             23.9496047084       25.5627861867        0.7703270638  TIP3      3894            0.0000000000
     29056      4030  TIP3      H2             25.3447743708       25.9968527377        1.1785237779  TIP3      3894            0.0000000000
     29057      4031  TIP3      OH2            34.6541333709       37.3519414418       17.4806544512  TIP3      3895            0.0000000000
     29058      4031  TIP3      H1             35.0405137310       38.2418281485       17.2982316663  TIP3      3895            0.0000000000
     29059      4031  TIP3      H2             35.4151414176       36.9764738190       17.9712723344  TIP3      3895            0.0000000000
     29060      4032  TIP3      OH2            22.2887435119       29.9044669445       16.9444930721  TIP3      3896            0.0000000000
     29061      4032  TIP3      H1             22.9587046512       30.3769576527       17.4749070778  TIP3      3896            0.0000000000
     29062      4032  TIP3      H2             21.5090609485       29.9456871983       17.5438583409  TIP3      3896            0.0000000000
     29063      4033  TIP3      OH2            27.6327041141       25.8313537855        9.2662050217  TIP3      3897            0.0000000000
     29064      4033  TIP3      H1             28.4421499062       25.3658935613        9.0085877726  TIP3      3897            0.0000000000
     29065      4033  TIP3      H2             27.3703176048       25.2734827472       10.0330839540  TIP3      3897            0.0000000000
     29066      4034  TIP3      OH2            23.2091888242       21.4943900114        6.1027774933  TIP3      3898            0.0000000000
     29067      4034  TIP3      H1             22.6622161120       20.7882879385        6.5296859854  TIP3      3898            0.0000000000
     29068      4034  TIP3      H2             23.7062888122       20.9518620464        5.4725404747  TIP3      3898            0.0000000000
     29069      4035  TIP3      OH2            27.7737447865       24.0158262582       11.4858171350  TIP3      3899            0.0000000000
     29070      4035  TIP3      H1             26.8881999129       24.2996594067       11.7576012965  TIP3      3899            0.0000000000
     29071      4035  TIP3      H2             28.2657481643       24.0604515782       12.3188568041  TIP3      3899            0.0000000000
     29072      4036  TIP3      OH2            27.7840876161       30.0776376714        3.9875154105  TIP3      3900            0.0000000000
     29073      4036  TIP3      H1             27.0478006952       29.5578082667        3.5909154987  TIP3      3900            0.0000000000
     29074      4036  TIP3      H2             27.3364116464       30.4202033691        4.8017943387  TIP3      3900            0.0000000000
     29075      4037  TIP3      OH2            35.2648165346       29.6098869443       12.5863077586  TIP3      3901            0.0000000000
     29076      4037  TIP3      H1             35.6916547376       30.1168352397       11.8594891624  TIP3      3901            0.0000000000
     29077      4037  TIP3      H2             34.4047693273       29.4063956170       12.1642497899  TIP3      3901            0.0000000000
     29078      4038  TIP3      OH2            31.6229285677       22.9140017415        1.6911092681  TIP3      3902            0.0000000000
     29079      4038  TIP3      H1             30.7230088268       22.9690970175        1.3112576031  TIP3      3902            0.0000000000
     29080      4038  TIP3      H2             31.6931766732       23.7888636853        2.1107914595  TIP3      3902            0.0000000000
     29081      4039  TIP3      OH2            29.2234047091       30.3177769559       15.2603522724  TIP3      3903            0.0000000000
     29082      4039  TIP3      H1             28.4727091017       30.2274302390       15.8763635808  TIP3      3903            0.0000000000
     29083      4039  TIP3      H2             29.3018776181       31.2959441460       15.2185475554  TIP3      3903            0.0000000000
     29084      4040  TIP3      OH2            31.9105997963       25.0982838389        3.4998161870  TIP3      3904            0.0000000000
     29085      4040  TIP3      H1             32.5871764528       24.6120091386        4.0151743476  TIP3      3904            0.0000000000
     29086      4040  TIP3      H2             32.3959810802       25.9242705450        3.3642627605  TIP3      3904            0.0000000000
     29087      4041  TIP3      OH2            22.7982761066       29.4864103604        9.2127543301  TIP3      3905            0.0000000000
     29088      4041  TIP3      H1             23.1149876918       29.2436184167        8.3161108856  TIP3      3905            0.0000000000
     29089      4041  TIP3      H2             23.1423154524       28.7587792926        9.7655576720  TIP3      3905            0.0000000000
     29090      4042  TIP3      OH2            29.8785316646       31.3633392218        2.7561010999  TIP3      3906            0.0000000000
     29091      4042  TIP3      H1             29.5597264227       32.2757074596        2.9324653017  TIP3      3906            0.0000000000
     29092      4042  TIP3      H2             29.1329295394       30.8446819186        3.1303976896  TIP3      3906            0.0000000000
     29093      4043  TIP3      OH2            20.1492201304       27.6116954619       14.3165918173  TIP3      3907            0.0000000000
     29094      4043  TIP3      H1             19.6751215340       27.2712566388       15.0975106792  TIP3      3907            0.0000000000
     29095      4043  TIP3      H2             19.5260080932       27.3963022972       13.5931660393  TIP3      3907            0.0000000000
     29096      4044  TIP3      OH2            26.5764398164       27.3777363188       16.3162505309  TIP3      3908            0.0000000000
     29097      4044  TIP3      H1             26.0727123385       26.9710945151       15.5982688979  TIP3      3908            0.0000000000
     29098      4044  TIP3      H2             27.4070283587       26.8552598962       16.3384976967  TIP3      3908            0.0000000000
     29099      4045  TIP3      OH2            31.7131157490       32.6976043298       15.1156794938  TIP3      3909            0.0000000000
     29100      4045  TIP3      H1             31.0408194884       32.9070599143       14.4554434885  TIP3      3909            0.0000000000
     29101      4045  TIP3      H2             31.3413519959       33.1236390543       15.9213040726  TIP3      3909            0.0000000000
     29102      4046  TIP3      OH2            37.0984844136       24.9194248137        3.1151269205  TIP3      3910            0.0000000000
     29103      4046  TIP3      H1             36.5411290605       24.8577673304        2.3069589798  TIP3      3910            0.0000000000
     29104      4046  TIP3      H2             37.2174786324       25.8932153926        3.1376542382  TIP3      3910            0.0000000000
     29105      4047  TIP3      OH2            37.2064568720       30.4984612446       16.0917692209  TIP3      3911            0.0000000000
     29106      4047  TIP3      H1             36.3548665121       30.9824689521       15.9972203326  TIP3      3911            0.0000000000
     29107      4047  TIP3      H2             37.5751451984       30.5967054679       15.1885340895  TIP3      3911            0.0000000000
     29108      4048  TIP3      OH2            35.4139040892       33.7150383725        3.3135050188  TIP3      3912            0.0000000000
     29109      4048  TIP3      H1             35.2636282693       32.8546007872        3.7199331116  TIP3      3912            0.0000000000
     29110      4048  TIP3      H2             35.7880373214       33.5410198660        2.4272086862  TIP3      3912            0.0000000000
     29111      4049  TIP3      OH2            32.7006399736       28.6110721191       10.6615152341  TIP3      3913            0.0000000000
     29112      4049  TIP3      H1             31.8330358432       28.3220028028       10.3302965811  TIP3      3913            0.0000000000
     29113      4049  TIP3      H2             33.3023503110       28.1473539348       10.0430371202  TIP3      3913            0.0000000000
     29114      4050  TIP3      OH2            24.8852980506       32.9916801675        6.8926471727  TIP3      3914            0.0000000000
     29115      4050  TIP3      H1             25.0927785088       33.9078780658        6.6130006105  TIP3      3914            0.0000000000
     29116      4050  TIP3      H2             23.9846182537       32.9036012714        6.5563390771  TIP3      3914            0.0000000000
     29117      4051  TIP3      OH2            21.2402342586       27.8491243730        1.0884009196  TIP3      3915            0.0000000000
     29118      4051  TIP3      H1             21.6401456137       28.3912010539        1.8041838737  TIP3      3915            0.0000000000
     29119      4051  TIP3      H2             20.3321474257       27.7227735608        1.4126293319  TIP3      3915            0.0000000000
     29120      4052  TIP3      OH2            26.3323271885       30.8018910272        6.1661345630  TIP3      3916            0.0000000000
     29121      4052  TIP3      H1             25.8638278057       31.6216628129        6.4466415265  TIP3      3916            0.0000000000
     29122      4052  TIP3      H2             25.8148820429       30.1179480404        6.6152769421  TIP3      3916            0.0000000000
     29123      4053  TIP3      OH2            27.1324598375       34.8778088599       13.2030214840  TIP3      3917            0.0000000000
     29124      4053  TIP3      H1             27.7748780934       35.4820861694       12.7856897891  TIP3      3917            0.0000000000
     29125      4053  TIP3      H2             27.6846093047       34.5257953056       13.9271918094  TIP3      3917            0.0000000000
     29126      4054  TIP3      OH2            25.2860548615       35.5947822816        5.9496800408  TIP3      3918            0.0000000000
     29127      4054  TIP3      H1             24.3603666761       35.8156487776        6.1799891202  TIP3      3918            0.0000000000
     29128      4054  TIP3      H2             25.7473009256       36.4106001426        6.2437069310  TIP3      3918            0.0000000000
     29129      4055  TIP3      OH2            30.1665451382       30.6068401667       12.4201976062  TIP3      3919            0.0000000000
     29130      4055  TIP3      H1             30.0222095343       30.2889578589       13.3354181087  TIP3      3919            0.0000000000
     29131      4055  TIP3      H2             30.6226155708       29.8352020363       12.0381067972  TIP3      3919            0.0000000000
     29132      4056  TIP3      OH2            33.0150616337       31.8829994614        1.7184836712  TIP3      3920            0.0000000000
     29133      4056  TIP3      H1             33.3517004801       31.4104742778        2.5116926330  TIP3      3920            0.0000000000
     29134      4056  TIP3      H2             32.0741210260       31.6370330961        1.7779003830  TIP3      3920            0.0000000000
     29135      4057  TIP3      OH2            33.5951935895       34.9827059911       14.6767671837  TIP3      3921            0.0000000000
     29136      4057  TIP3      H1             32.7014566938       34.6287559738       14.5213789190  TIP3      3921            0.0000000000
     29137      4057  TIP3      H2             33.6329398724       35.7340072333       14.0369585084  TIP3      3921            0.0000000000
     29138      4058  TIP3      OH2            37.3149835044       36.1099993086        1.8088075530  TIP3      3922            0.0000000000
     29139      4058  TIP3      H1             37.7521274088       36.6209288815        1.1038428852  TIP3      3922            0.0000000000
     29140      4058  TIP3      H2             36.7286205676       36.7806248042        2.2275172324  TIP3      3922            0.0000000000
     29141      4059  TIP3      OH2            21.4791166649       22.7289461378       14.0989468948  TIP3      3923            0.0000000000
     29142      4059  TIP3      H1             20.7018723182       23.1682602974       14.4691614503  TIP3      3923            0.0000000000
     29143      4059  TIP3      H2             21.5441289422       21.9710147531       14.6834776063  TIP3      3923            0.0000000000
     29144      4060  TIP3      OH2            33.8328595364       30.2684866632        3.7325892228  TIP3      3924            0.0000000000
     29145      4060  TIP3      H1             33.6768437703       29.4494660609        4.2548448713  TIP3      3924            0.0000000000
     29146      4060  TIP3      H2             34.8108047642       30.2375882843        3.7123536183  TIP3      3924            0.0000000000
     29147      4061  TIP3      OH2            21.1281134232       34.2777980615       12.6511301890  TIP3      3925            0.0000000000
     29148      4061  TIP3      H1             21.8947396321       33.7457318739       12.8924390468  TIP3      3925            0.0000000000
     29149      4061  TIP3      H2             20.9918843036       34.8243878321       13.4395148159  TIP3      3925            0.0000000000
     29150      4062  TIP3      OH2            25.7184784953       32.4002643307        2.3890892547  TIP3      3926            0.0000000000
     29151      4062  TIP3      H1             26.2659526264       31.8075111592        2.9228083817  TIP3      3926            0.0000000000
     29152      4062  TIP3      H2             25.8733365489       33.2670368957        2.8526043788  TIP3      3926            0.0000000000
     29153      4063  TIP3      OH2            22.2978887879       29.6337489627        2.9834965674  TIP3      3927            0.0000000000
     29154      4063  TIP3      H1             21.6290196512       30.0872912749        3.5534216699  TIP3      3927            0.0000000000
     29155      4063  TIP3      H2             22.7806025061       30.3801002490        2.5933638046  TIP3      3927            0.0000000000
     29156      4064  TIP3      OH2            30.2386451358       22.2496428213       13.4585514154  TIP3      3928            0.0000000000
     29157      4064  TIP3      H1             31.1554033202       22.0502568515       13.2172844069  TIP3      3928            0.0000000000
     29158      4064  TIP3      H2             29.8972103308       21.3363112863       13.5273768826  TIP3      3928            0.0000000000
     29159      4065  TIP3      OH2            30.8928868580       21.9051861096        4.3537082909  TIP3      3929            0.0000000000
     29160      4065  TIP3      H1             31.4661962685       22.1724310142        3.6185285975  TIP3      3929            0.0000000000
     29161      4065  TIP3      H2             31.4956813228       22.0033806134        5.1236137630  TIP3      3929            0.0000000000
     29162      4066  TIP3      OH2            28.9792111852       33.8371871638        3.4555910720  TIP3      3930            0.0000000000
     29163      4066  TIP3      H1             28.2222481595       34.4329687366        3.6029575852  TIP3      3930            0.0000000000
     29164      4066  TIP3      H2             29.4915522956       34.3109966959        2.7640242236  TIP3      3930            0.0000000000
     29165      4067  TIP3      OH2            28.0824466472       23.9182076052        5.4972847317  TIP3      3931            0.0000000000
     29166      4067  TIP3      H1             28.7622394768       24.6016725225        5.6393314188  TIP3      3931            0.0000000000
     29167      4067  TIP3      H2             28.0139738446       23.4902722818        6.3874142757  TIP3      3931            0.0000000000
     29168      4068  TIP3      OH2            29.3479698830       24.8222515079       14.0256667896  TIP3      3932            0.0000000000
     29169      4068  TIP3      H1             29.5190161799       25.1098882978       14.9456335768  TIP3      3932            0.0000000000
     29170      4068  TIP3      H2             29.7151527926       23.9103574383       14.0009495718  TIP3      3932            0.0000000000
     29171      4069  TIP3      OH2            29.0363774671       20.5382399992        5.8874300175  TIP3      3933            0.0000000000
     29172      4069  TIP3      H1             28.6952848914       21.1616092491        6.5616133391  TIP3      3933            0.0000000000
     29173      4069  TIP3      H2             29.7558032562       21.0709915836        5.4748192292  TIP3      3933            0.0000000000
     29174      4070  TIP3      OH2            26.0290558299       34.7486870172        3.5932476417  TIP3      3934            0.0000000000
     29175      4070  TIP3      H1             26.1985204127       35.6033513314        3.1383366117  TIP3      3934            0.0000000000
     29176      4070  TIP3      H2             25.7579987617       35.0817673483        4.4806563873  TIP3      3934            0.0000000000
     29177      4071  TIP3      OH2            24.6161074711       21.8055279375        3.0925238600  TIP3      3935            0.0000000000
     29178      4071  TIP3      H1             24.5914673127       22.6430702407        3.5912650462  TIP3      3935            0.0000000000
     29179      4071  TIP3      H2             25.5084773057       21.4936660561        3.3251342395  TIP3      3935            0.0000000000
     29180      4072  TIP3      OH2            35.0909044891       22.3855986772       15.1546933280  TIP3      3936            0.0000000000
     29181      4072  TIP3      H1             34.1299873649       22.5744118264       15.2500753300  TIP3      3936            0.0000000000
     29182      4072  TIP3      H2             35.0530355080       22.3735571610       14.1618011953  TIP3      3936            0.0000000000
     29183      4073  TIP3      OH2            33.9418007212       26.7281882590        8.9025727359  TIP3      3937            0.0000000000
     29184      4073  TIP3      H1             33.1255684444       26.1942652950        8.9996875297  TIP3      3937            0.0000000000
     29185      4073  TIP3      H2             34.5616129157       26.2087364375        9.4516906749  TIP3      3937            0.0000000000
     29186      4074  TIP3      OH2            23.0244401296       32.3172245858        1.4457954888  TIP3      3938            0.0000000000
     29187      4074  TIP3      H1             23.7549768059       32.6666416780        2.0010695871  TIP3      3938            0.0000000000
     29188      4074  TIP3      H2             23.5690655764       31.7775237697        0.8509271762  TIP3      3938            0.0000000000
     29189      4075  TIP3      OH2            21.2629376254       25.1336342823        0.8549879498  TIP3      3939            0.0000000000
     29190      4075  TIP3      H1             21.4684303415       26.0842996256        0.9876996292  TIP3      3939            0.0000000000
     29191      4075  TIP3      H2             20.4483628733       25.1663793205        0.3332532619  TIP3      3939            0.0000000000
     29192      4076  TIP3      OH2            34.5409974843       35.5300547707       10.6499716352  TIP3      3940            0.0000000000
     29193      4076  TIP3      H1             34.4521898527       36.2546333252        9.9956417897  TIP3      3940            0.0000000000
     29194      4076  TIP3      H2             35.5226264993       35.4976766166       10.6619727745  TIP3      3940            0.0000000000
     29195      4077  TIP3      OH2            21.9911787633       19.8856621685        9.6558533596  TIP3      3941            0.0000000000
     29196      4077  TIP3      H1             21.9704828375       19.5948387501        8.7135128299  TIP3      3941            0.0000000000
     29197      4077  TIP3      H2             21.6968883455       19.0555359467       10.0976433311  TIP3      3941            0.0000000000
     29198      4078  TIP3      OH2            20.4362466937       33.3038638076        5.2308030790  TIP3      3942            0.0000000000
     29199      4078  TIP3      H1             19.9386701304       33.9466414861        5.7512612441  TIP3      3942            0.0000000000
     29200      4078  TIP3      H2             20.7040676901       33.8914379184        4.4852150841  TIP3      3942            0.0000000000
     29201      4079  TIP3      OH2            20.3045940712       36.3025014813       16.7501462987  TIP3      3943            0.0000000000
     29202      4079  TIP3      H1             20.9532524204       36.1638384195       17.4737523797  TIP3      3943            0.0000000000
     29203      4079  TIP3      H2             19.8176269756       35.4558888777       16.7781087517  TIP3      3943            0.0000000000
     29204      4080  TIP3      OH2            24.9061410959       35.4323812357       18.3354140650  TIP3      3944            0.0000000000
     29205      4080  TIP3      H1             25.7341167578       34.9533412310       18.4948855684  TIP3      3944            0.0000000000
     29206      4080  TIP3      H2             24.6569811850       35.0171864141       17.4799092559  TIP3      3944            0.0000000000
     29207      4081  TIP3      OH2            30.0540715671       34.8159784433        1.1013355489  TIP3      3945            0.0000000000
     29208      4081  TIP3      H1             29.4981836588       34.1873790360        0.6002660374  TIP3      3945            0.0000000000
     29209      4081  TIP3      H2             30.5075350693       35.2739781450        0.3693269674  TIP3      3945            0.0000000000
     29210      4082  TIP3      OH2            31.1760429911       34.0733688796       17.3933696507  TIP3      3946            0.0000000000
     29211      4082  TIP3      H1             30.9069709251       33.1804110425       17.7386608391  TIP3      3946            0.0000000000
     29212      4082  TIP3      H2             32.0912677786       34.1330413189       17.7303320665  TIP3      3946            0.0000000000
     29213      4083  TIP3      OH2            33.9652950846       34.2550687557        0.3664381238  TIP3      3947            0.0000000000
     29214      4083  TIP3      H1             33.5055504156       33.5692798385        0.8944185678  TIP3      3947            0.0000000000
     29215      4083  TIP3      H2             34.8752853709       33.9468190985        0.5324230359  TIP3      3947            0.0000000000
     29216      4084  TIP3      OH2            19.9435122307       30.0325881702       18.2460014443  TIP3      3948            0.0000000000
     29217      4084  TIP3      H1             19.2338600079       29.3806277793       18.2955765883  TIP3      3948            0.0000000000
     29218      4084  TIP3      H2             19.6197427692       30.6029322305       17.5228571383  TIP3      3948            0.0000000000
     29219      4085  TIP3      OH2            24.7599799494       29.9806567442        0.3491357411  TIP3      3949            0.0000000000
     29220      4085  TIP3      H1             25.4963829831       30.0368316099        0.9791295811  TIP3      3949            0.0000000000
     29221      4085  TIP3      H2             25.2676333601       29.6827956821       -0.4327635217  TIP3      3949            0.0000000000
     29222      4086  TIP3      OH2            27.0004054660       29.9650886509       17.0245361222  TIP3      3950            0.0000000000
     29223      4086  TIP3      H1             26.5882083882       30.6329344314       16.4218770522  TIP3      3950            0.0000000000
     29224      4086  TIP3      H2             26.7729692316       29.1107745247       16.5946196800  TIP3      3950            0.0000000000
     29225      4087  TIP3      OH2            32.5201620723       29.8685136221       14.7372789553  TIP3      3951            0.0000000000
     29226      4087  TIP3      H1             33.3688244822       30.3395804101       14.7894130595  TIP3      3951            0.0000000000
     29227      4087  TIP3      H2             31.9349610290       30.6021274582       15.0121218915  TIP3      3951            0.0000000000
     29228      4088  TIP3      OH2            20.7619669336       27.1427161864       17.7914239698  TIP3      3952            0.0000000000
     29229      4088  TIP3      H1             21.4882864403       27.6192622804       17.3679705137  TIP3      3952            0.0000000000
     29230      4088  TIP3      H2             20.8321912379       27.4842816449       18.7173530928  TIP3      3952            0.0000000000
     29231      4089  TIP3      OH2            25.9000796822       28.5973809253        2.4549962464  TIP3      3953            0.0000000000
     29232      4089  TIP3      H1             25.0957473343       28.1517063081        2.7699362359  TIP3      3953            0.0000000000
     29233      4089  TIP3      H2             26.2453915800       27.9331632050        1.8239876582  TIP3      3953            0.0000000000
     29234      4090  TIP3      OH2            24.5647763365       26.4460496835       14.2837159124  TIP3      3954            0.0000000000
     29235      4090  TIP3      H1             24.0250918336       27.2568993297       14.4148156898  TIP3      3954            0.0000000000
     29236      4090  TIP3      H2             25.2745881775       26.8000085407       13.7096942925  TIP3      3954            0.0000000000
     29237      4091  TIP3      OH2            26.9799370824       26.7365057913        0.6063346985  TIP3      3955            0.0000000000
     29238      4091  TIP3      H1             27.1903019254       27.0157848710       -0.3098566335  TIP3      3955            0.0000000000
     29239      4091  TIP3      H2             27.8782753993       26.7819475977        1.0164216589  TIP3      3955            0.0000000000
     29240      4092  TIP3      OH2            30.0996114258       28.8716547541       18.1194435216  TIP3      3956            0.0000000000
     29241      4092  TIP3      H1             30.9303214278       28.5585286540       17.7310407140  TIP3      3956            0.0000000000
     29242      4092  TIP3      H2             29.5619403358       28.9997303975       17.3222634916  TIP3      3956            0.0000000000
     29243      4093  TIP3      OH2            36.1473168305       29.4345184877       84.6283462845  TIP3      3957            0.0000000000
     29244      4093  TIP3      H1             35.8600211841       29.6397013283       83.7218805214  TIP3      3957            0.0000000000
     29245      4093  TIP3      H2             36.3079798362       30.3060712960       85.0074221463  TIP3      3957            0.0000000000
     29246      4094  TIP3      OH2            25.4384514152       24.2140810338       15.5443167279  TIP3      3958            0.0000000000
     29247      4094  TIP3      H1             25.6870123813       23.4592697712       14.9716137491  TIP3      3958            0.0000000000
     29248      4094  TIP3      H2             25.2741987508       24.9408861299       14.9057986518  TIP3      3958            0.0000000000
     29249      4095  TIP3      OH2            25.9025262656       22.0666720132       13.5929773946  TIP3      3959            0.0000000000
     29250      4095  TIP3      H1             26.3005000649       22.2357290274       12.7204683119  TIP3      3959            0.0000000000
     29251      4095  TIP3      H2             24.9630512831       21.9681851855       13.3227161678  TIP3      3959            0.0000000000
     29252      4096  TIP3      OH2            26.9292452342       27.8756985405       13.3878548618  TIP3      3960            0.0000000000
     29253      4096  TIP3      H1             27.8741604454       28.0192066727       13.2871996917  TIP3      3960            0.0000000000
     29254      4096  TIP3      H2             26.5396648881       28.5936169306       12.8654929713  TIP3      3960            0.0000000000
     29255      4097  TIP3      OH2            31.3975651664       25.2528759684       18.4112336980  TIP3      3961            0.0000000000
     29256      4097  TIP3      H1             31.0495152529       24.3846259045       18.1469220596  TIP3      3961            0.0000000000
     29257      4097  TIP3      H2             32.1798691907       25.3401317883       17.8418879765  TIP3      3961            0.0000000000
     29258      4098  TIP3      OH2            33.1104620475       28.4722274203       16.9505902312  TIP3      3962            0.0000000000
     29259      4098  TIP3      H1             32.7978574290       28.7969531958       16.0823950908  TIP3      3962            0.0000000000
     29260      4098  TIP3      H2             34.0647719752       28.3871364197       16.7362848644  TIP3      3962            0.0000000000
     29261      4099  TIP3      OH2            23.6875431439       25.0477153663       17.7296922856  TIP3      3963            0.0000000000
     29262      4099  TIP3      H1             23.0430968228       24.3676278425       17.4497628484  TIP3      3963            0.0000000000
     29263      4099  TIP3      H2             24.3921360711       24.9269612425       17.0690261851  TIP3      3963            0.0000000000
     29264      4100  TIP3      OH2            26.5494954072       19.5040438498       14.1370270213  TIP3      3964            0.0000000000
     29265      4100  TIP3      H1             26.2214675029       20.3834289461       13.8578515641  TIP3      3964            0.0000000000
     29266      4100  TIP3      H2             26.0092706107       18.8934225365       13.5770075486  TIP3      3964            0.0000000000
     29267      4101  TIP3      OH2            27.6368066623       23.8969709124       17.3318393060  TIP3      3965            0.0000000000
     29268      4101  TIP3      H1             27.4735937674       23.6123958284       18.2486624740  TIP3      3965            0.0000000000
     29269      4101  TIP3      H2             26.7573625435       23.8016229601       16.9210830463  TIP3      3965            0.0000000000
     29270      4102  TIP3      OH2            30.6638720271       22.9940391089       16.8150429956  TIP3      3966            0.0000000000
     29271      4102  TIP3      H1             29.7317903298       22.7264486176       16.9054517427  TIP3      3966            0.0000000000
     29272      4102  TIP3      H2             31.1492325631       22.2216623094       17.1580110399  TIP3      3966            0.0000000000
     29273      4103  TIP3      OH2            32.4536971039       21.5468848010       18.5235566185  TIP3      3967            0.0000000000
     29274      4103  TIP3      H1             32.3082170274       20.5807337974       18.3890454947  TIP3      3967            0.0000000000
     29275      4103  TIP3      H2             31.9017892502       21.7364458419       19.2925440283  TIP3      3967            0.0000000000
     29276      4104  TIP3      OH2            21.9075391600       22.8880078398       17.7494052346  TIP3      3968            0.0000000000
     29277      4104  TIP3      H1             22.2042306012       22.0821312231       17.2962263678  TIP3      3968            0.0000000000
     29278      4104  TIP3      H2             21.4324134667       22.5403398916       18.5224297756  TIP3      3968            0.0000000000
     29279      4105  TIP3      OH2            26.5233606085       18.6473672697       16.7504143073  TIP3      3969            0.0000000000
     29280      4105  TIP3      H1             27.1242717603       17.8790302015       16.7840798629  TIP3      3969            0.0000000000
     29281      4105  TIP3      H2             26.6009086149       18.9121897862       15.8093973405  TIP3      3969            0.0000000000
     29282      4106  TIP3      OH2            26.7487160705       20.2208774234       19.2346521520  TIP3      3970            0.0000000000
     29283      4106  TIP3      H1             26.7927988097       19.7630191044       18.3670348743  TIP3      3970            0.0000000000
     29284      4106  TIP3      H2             25.9148677450       20.7159274412       19.1217876102  TIP3      3970            0.0000000000
     29285      4107  TIP3      OH2            26.4525019686       37.0937508462        2.3534860044  TIP3      3971            0.0000000000
     29286      4107  TIP3      H1             26.8004755923       37.9309849897        2.6821068162  TIP3      3971            0.0000000000
     29287      4107  TIP3      H2             26.8507556969       37.0631254093        1.4746248759  TIP3      3971            0.0000000000
     29288      4108  TIP3      OH2            20.0982838395       31.6002734862        1.4469914831  TIP3      3972            0.0000000000
     29289      4108  TIP3      H1             21.0661327359       31.7398354059        1.4444425884  TIP3      3972            0.0000000000
     29290      4108  TIP3      H2             19.9448795555       31.4303360637        0.5054834983  TIP3      3972            0.0000000000
     29291      4109  TIP3      OH2            19.1321250106       36.9339245130        6.1343957642  TIP3      3973            0.0000000000
     29292      4109  TIP3      H1             18.3328356253       36.4847429281        5.7894583169  TIP3      3973            0.0000000000
     29293      4109  TIP3      H2             19.3272489992       36.3807023588        6.9236104213  TIP3      3973            0.0000000000
     29294      4110  TIP3      OH2            19.6005296987       35.3058042988        8.1776623343  TIP3      3974            0.0000000000
     29295      4110  TIP3      H1             19.1932178275       34.4325580221        8.2063995505  TIP3      3974            0.0000000000
     29296      4110  TIP3      H2             19.3515234402       35.6510814585        9.0724578039  TIP3      3974            0.0000000000
     29297      4111  TIP3      OH2            37.2341979053       35.9552823450       10.7491470773  TIP3      3975            0.0000000000
     29298      4111  TIP3      H1             37.5429030428       36.5026671646       11.4890346234  TIP3      3975            0.0000000000
     29299      4111  TIP3      H2             37.7038137387       36.3424901007        9.9963444224  TIP3      3975            0.0000000000
     29300      4112  TIP3      OH2            36.9615739615       35.4220447472       13.9006577587  TIP3      3976            0.0000000000
     29301      4112  TIP3      H1             36.5745994360       34.7254502358       13.3251297897  TIP3      3976            0.0000000000
     29302      4112  TIP3      H2             37.1584395763       34.9247178659       14.7122103754  TIP3      3976            0.0000000000
     29303      4113  TIP3      OH2            35.4758481783       31.4924969997       18.6210839946  TIP3      3977            0.0000000000
     29304      4113  TIP3      H1             34.5992141002       31.4485437259       19.0483144895  TIP3      3977            0.0000000000
     29305      4113  TIP3      H2             35.9158873641       32.1686898020       19.1833960193  TIP3      3977            0.0000000000
     29306      4114  TIP3      OH2            36.5253831261       29.8132531663        3.8537834378  TIP3      3978            0.0000000000
     29307      4114  TIP3      H1             37.4077226516       30.1805021913        4.0996928144  TIP3      3978            0.0000000000
     29308      4114  TIP3      H2             36.3903743900       29.1878925526        4.5908950470  TIP3      3978            0.0000000000
     29309      4115  TIP3      OH2            37.1613666393       27.7280948968        5.9164857109  TIP3      3979            0.0000000000
     29310      4115  TIP3      H1             36.3477921619       27.2692419548        6.2350749277  TIP3      3979            0.0000000000
     29311      4115  TIP3      H2             37.6267467661       27.9172253028        6.7577547745  TIP3      3979            0.0000000000
     29312      4116  TIP3      OH2            36.6924298391       30.3860603452       10.4880391342  TIP3      3980            0.0000000000
     29313      4116  TIP3      H1             37.5048494574       29.8445670561       10.4207285286  TIP3      3980            0.0000000000
     29314      4116  TIP3      H2             36.9817799729       31.2649501914       10.1838188805  TIP3      3980            0.0000000000
     29315      4117  TIP3      OH2            35.3690332399       33.4676107146       12.9701448256  TIP3      3981            0.0000000000
     29316      4117  TIP3      H1             34.7756557245       33.9371598576       13.5899115206  TIP3      3981            0.0000000000
     29317      4117  TIP3      H2             34.8051867281       33.3273209586       12.1816191331  TIP3      3981            0.0000000000
     29318      4118  TIP3      OH2            37.0980724302       27.5199135800        2.2419056152  TIP3      3982            0.0000000000
     29319      4118  TIP3      H1             36.5720795670       27.7455448625        1.4573498041  TIP3      3982            0.0000000000
     29320      4118  TIP3      H2             36.9864552983       28.3223212022        2.7895602658  TIP3      3982            0.0000000000
     29321      4119  TIP3      OH2            35.0793486675       24.8954377869        0.9184825598  TIP3      3983            0.0000000000
     29322      4119  TIP3      H1             35.7188790079       25.2752588435        0.2942726055  TIP3      3983            0.0000000000
     29323      4119  TIP3      H2             35.1160072193       23.9676950617        0.6037212939  TIP3      3983            0.0000000000
     29324      4120  TIP3      OH2            35.0689717437       26.1785634147        6.5326476490  TIP3      3984            0.0000000000
     29325      4120  TIP3      H1             34.7304547778       25.2900552221        6.3342311043  TIP3      3984            0.0000000000
     29326      4120  TIP3      H2             34.6706184310       26.3697936778        7.4082251741  TIP3      3984            0.0000000000
     29327      4121  TIP3      OH2            20.0072493537       28.1858185698       10.8168654488  TIP3      3985            0.0000000000
     29328      4121  TIP3      H1             19.9617169280       28.1764143484        9.8363875945  TIP3      3985            0.0000000000
     29329      4121  TIP3      H2             20.9499036941       27.9543664001       10.9733117897  TIP3      3985            0.0000000000
     29330      4122  TIP3      OH2            35.6964825873       28.2902355957       16.0269432689  TIP3      3986            0.0000000000
     29331      4122  TIP3      H1             36.2113929335       27.4644265644       16.1592700506  TIP3      3986            0.0000000000
     29332      4122  TIP3      H2             36.3946950427       28.9609871427       15.8809109865  TIP3      3986            0.0000000000
     29333      4123  TIP3      OH2            37.0375139174       25.9974512625       16.4855480177  TIP3      3987            0.0000000000
     29334      4123  TIP3      H1             36.1452264744       25.5671772305       16.5174069622  TIP3      3987            0.0000000000
     29335      4123  TIP3      H2             37.5901652131       25.2418753631       16.7903056407  TIP3      3987            0.0000000000
     29336      4124  TIP3      OH2            34.9424766347       22.4432829790       -0.1292543620  TIP3      3988            0.0000000000
     29337      4124  TIP3      H1             35.4121215887       21.9467539085        0.5789671478  TIP3      3988            0.0000000000
     29338      4124  TIP3      H2             34.0085538888       22.4203962451        0.1472456637  TIP3      3988            0.0000000000
     29339      4125  TIP3      OH2            34.0986293603       24.2956893831        4.8043261761  TIP3      3989            0.0000000000
     29340      4125  TIP3      H1             34.5265949482       23.4837207514        5.1621772278  TIP3      3989            0.0000000000
     29341      4125  TIP3      H2             34.8060266093       24.5687342984        4.1956568531  TIP3      3989            0.0000000000
     29342      4126  TIP3      OH2            35.4640202961       24.5703028210       10.7194697941  TIP3      3990            0.0000000000
     29343      4126  TIP3      H1             36.4304268857       24.7834982684       10.7782248057  TIP3      3990            0.0000000000
     29344      4126  TIP3      H2             35.1593543405       24.7972826821       11.6161862170  TIP3      3990            0.0000000000
     29345      4127  TIP3      OH2            35.2870581551       25.4350635524       13.4878064724  TIP3      3991            0.0000000000
     29346      4127  TIP3      H1             34.3735041316       25.6999985767       13.7076835370  TIP3      3991            0.0000000000
     29347      4127  TIP3      H2             35.7077108852       26.2857849555       13.2658960624  TIP3      3991            0.0000000000
     29348      4128  TIP3      OH2            19.6018658231       24.0645663756       16.9383368967  TIP3      3992            0.0000000000
     29349      4128  TIP3      H1             20.5073785213       23.8057994026       17.1884095357  TIP3      3992            0.0000000000
     29350      4128  TIP3      H2             19.1038168486       23.2715040065       17.2366951521  TIP3      3992            0.0000000000
     29351      4129  TIP3      OH2            38.1090181892       19.4015657242       18.8773707254  TIP3      3993            0.0000000000
     29352      4129  TIP3      H1             38.5578845862       18.9547862533       18.1384209172  TIP3      3993            0.0000000000
     29353      4129  TIP3      H2             37.6675219304       20.1146441924       18.3673855851  TIP3      3993            0.0000000000
     29354      4130  TIP3      OH2            35.5513822212       21.9889783035        5.1921301647  TIP3      3994            0.0000000000
     29355      4130  TIP3      H1             35.6125259204       21.3814072394        5.9627527088  TIP3      3994            0.0000000000
     29356      4130  TIP3      H2             35.0916253538       21.4247955370        4.5530999792  TIP3      3994            0.0000000000
     29357      4131  TIP3      OH2            20.8259174219       22.2682763672       10.1100463472  TIP3      3995            0.0000000000
     29358      4131  TIP3      H1             21.1998492378       21.3668067290        9.9506781605  TIP3      3995            0.0000000000
     29359      4131  TIP3      H2             21.6487991944       22.7997084159       10.1435463120  TIP3      3995            0.0000000000
     29360      4132  TIP3      OH2            19.2923701226       25.0762905363       11.0661846924  TIP3      3996            0.0000000000
     29361      4132  TIP3      H1             19.7050837535       24.7125237705       10.2678926514  TIP3      3996            0.0000000000
     29362      4132  TIP3      H2             19.2808312975       26.0334366382       10.8849424058  TIP3      3996            0.0000000000
     29363      4133  TIP3      OH2            36.9471221378       21.3520168403       17.4671985205  TIP3      3997            0.0000000000
     29364      4133  TIP3      H1             36.2427609235       21.8926957968       17.8881680329  TIP3      3997            0.0000000000
     29365      4133  TIP3      H2             36.6405136535       21.2906544152       16.5474180439  TIP3      3997            0.0000000000
     29366      4134  TIP3      OH2            36.8546129375       21.5531356898        1.6717250671  TIP3      3998            0.0000000000
     29367      4134  TIP3      H1             37.2236755226       21.4514010418        0.7824183531  TIP3      3998            0.0000000000
     29368      4134  TIP3      H2             37.6256496251       21.9119568423        2.1589730115  TIP3      3998            0.0000000000
     29369      4135  TIP3      OH2            19.2414308217       20.9932116810        4.4561697517  TIP3      3999            0.0000000000
     29370      4135  TIP3      H1             18.3822522694       21.2887092838        4.7822214655  TIP3      3999            0.0000000000
     29371      4135  TIP3      H2             19.3907258155       21.6440039882        3.7378762304  TIP3      3999            0.0000000000
     29372      4136  TIP3      OH2            34.2279042853       36.5474162819        6.8568862484  TIP3      4000            0.0000000000
     29373      4136  TIP3      H1             35.0121253371       36.3558211876        6.2993356488  TIP3      4000            0.0000000000
     29374      4136  TIP3      H2             34.6019737979       37.0949503341        7.5692098087  TIP3      4000            0.0000000000
     29375      4137  TIP3      OH2            19.5552001941       19.8576617293       13.1637278182  TIP3      4001            0.0000000000
     29376      4137  TIP3      H1             18.9975952570       19.5716418311       13.9102880984  TIP3      4001            0.0000000000
     29377      4137  TIP3      H2             19.0133487991       20.5321015809       12.7370781193  TIP3      4001            0.0000000000
     29378      4138  TIP3      OH2            21.7694199119       32.9309768181       17.1243431249  TIP3      4002            0.0000000000
     29379      4138  TIP3      H1             20.9945868311       33.4817926330       16.9285092386  TIP3      4002            0.0000000000
     29380      4138  TIP3      H2             21.6309185203       32.6787957985       18.0491074525  TIP3      4002            0.0000000000
     29381      4139  TIP3      OH2            24.3825235565       34.7769892394       13.8037273166  TIP3      4003            0.0000000000
     29382      4139  TIP3      H1             24.4546776607       35.6754723659       13.4109410734  TIP3      4003            0.0000000000
     29383      4139  TIP3      H2             25.3054202012       34.4852248349       13.6659724084  TIP3      4003            0.0000000000
     29384      4140  TIP3      OH2            28.6509426682       35.6542163128       16.0870640005  TIP3      4004            0.0000000000
     29385      4140  TIP3      H1             28.6544314590       35.4890714594       17.0526347628  TIP3      4004            0.0000000000
     29386      4140  TIP3      H2             29.5766103069       35.9668800964       15.9549003227  TIP3      4004            0.0000000000
     29387      4141  TIP3      OH2            30.9017500308       37.0596944689       15.6216725565  TIP3      4005            0.0000000000
     29388      4141  TIP3      H1             31.7557143440       37.0867781767       15.1692157776  TIP3      4005            0.0000000000
     29389      4141  TIP3      H2             31.1033236252       37.4659222023       16.4853101830  TIP3      4005            0.0000000000
     29390      4142  TIP3      OH2            36.2068322864       19.5988429029       14.7332903498  TIP3      4006            0.0000000000
     29391      4142  TIP3      H1             35.5626151246       20.2122730967       14.3542946791  TIP3      4006            0.0000000000
     29392      4142  TIP3      H2             36.0086722556       18.8116078954       14.1849936983  TIP3      4006            0.0000000000
     29393      4143  TIP3      OH2            21.7641463577       37.5682057047       13.2985872150  TIP3      4007            0.0000000000
     29394      4143  TIP3      H1             20.9484507963       37.9023492942       12.8696155575  TIP3      4007            0.0000000000
     29395      4143  TIP3      H2             21.6027431460       37.7963732159       14.2249243376  TIP3      4007            0.0000000000
     29396      4144  TIP3      OH2            24.3885791863       37.2168650486       12.4871425714  TIP3      4008            0.0000000000
     29397      4144  TIP3      H1             23.4232359465       37.2581937806       12.6992012525  TIP3      4008            0.0000000000
     29398      4144  TIP3      H2             24.4350620146       37.8457502870       11.7397995776  TIP3      4008            0.0000000000
     29399      4145  TIP3      OH2            28.8195514929       36.7270533191       11.7448539668  TIP3      4009            0.0000000000
     29400      4145  TIP3      H1             27.9667959743       37.1796340963       11.6231705449  TIP3      4009            0.0000000000
     29401      4145  TIP3      H2             29.2868411116       37.4246570407       12.2615692900  TIP3      4009            0.0000000000
     29402      4146  TIP3      OH2            31.0769218737       35.4649085414       13.0005581445  TIP3      4010            0.0000000000
     29403      4146  TIP3      H1             30.5026416278       35.8516187517       12.3183723396  TIP3      4010            0.0000000000
     29404      4146  TIP3      H2             31.8935013544       35.9662445823       12.8204060351  TIP3      4010            0.0000000000
     29405      4147  TIP3      OH2            33.7209263672       36.8664467511       12.7954825268  TIP3      4011            0.0000000000
     29406      4147  TIP3      H1             33.9340789983       37.7068969622       12.3401512780  TIP3      4011            0.0000000000
     29407      4147  TIP3      H2             34.0761404888       36.2157678067       12.1416613082  TIP3      4011            0.0000000000
     29408      4148  TIP3      OH2            21.5032686424       36.0472786158       10.5448754188  TIP3      4012            0.0000000000
     29409      4148  TIP3      H1             21.2421298105       35.4454280392       11.2730773678  TIP3      4012            0.0000000000
     29410      4148  TIP3      H2             22.3076886111       35.6043308200       10.1953497687  TIP3      4012            0.0000000000
     29411      4149  TIP3      OH2            23.6532376429       34.7929867314        9.2726135587  TIP3      4013            0.0000000000
     29412      4149  TIP3      H1             23.5502916390       33.8396605927        9.4772559584  TIP3      4013            0.0000000000
     29413      4149  TIP3      H2             24.5014007464       34.9336195202        9.7517620397  TIP3      4013            0.0000000000
     29414      4150  TIP3      OH2            25.8475662332       34.7536758469       10.7369945052  TIP3      4014            0.0000000000
     29415      4150  TIP3      H1             26.1521095252       33.8674109894       10.4714695949  TIP3      4014            0.0000000000
     29416      4150  TIP3      H2             26.1679963297       34.7998397665       11.6569526787  TIP3      4014            0.0000000000
     29417      4151  TIP3      OH2            28.9681633196       20.3629643676        8.7378024912  TIP3      4015            0.0000000000
     29418      4151  TIP3      H1             29.2900100213       20.4708243964        9.6453113327  TIP3      4015            0.0000000000
     29419      4151  TIP3      H2             29.2924860270       19.4754379692        8.5450064669  TIP3      4015            0.0000000000
     29420      4152  TIP3      OH2            34.7694334490       18.9437356782        8.9887980201  TIP3      4016            0.0000000000
     29421      4152  TIP3      H1             35.4300763604       19.5557778496        8.5936656847  TIP3      4016            0.0000000000
     29422      4152  TIP3      H2             33.9279446287       19.3251268339        8.6468955703  TIP3      4016            0.0000000000
     29423      4153  TIP3      OH2            36.3742194869       20.2771763371        7.2081636934  TIP3      4017            0.0000000000
     29424      4153  TIP3      H1             37.0430441686       19.7621417839        6.7055002113  TIP3      4017            0.0000000000
     29425      4153  TIP3      H2             36.9125029961       21.0886496594        7.3895329490  TIP3      4017            0.0000000000
     29426      4154  TIP3      OH2            21.9156571736       19.2413013395        7.0188683371  TIP3      4018            0.0000000000
     29427      4154  TIP3      H1             21.0562624389       19.1790841641        6.5611029053  TIP3      4018            0.0000000000
     29428      4154  TIP3      H2             22.2995613944       18.3579419249        6.8201220288  TIP3      4018            0.0000000000
     29429      4155  TIP3      OH2            20.3728133375       19.3207364671        2.5790854518  TIP3      4019            0.0000000000
     29430      4155  TIP3      H1             20.9775796640       19.9044696014        2.0726963172  TIP3      4019            0.0000000000
     29431      4155  TIP3      H2             19.9470150667       19.9338795903        3.2198844311  TIP3      4019            0.0000000000
     29432      4156  TIP3      OH2            26.3071217803       19.1049739211        7.0497963821  TIP3      4020            0.0000000000
     29433      4156  TIP3      H1             27.0631059206       19.4478406098        6.5587091685  TIP3      4020            0.0000000000
     29434      4156  TIP3      H2             26.5295318777       19.3050207410        7.9701095729  TIP3      4020            0.0000000000
     29435      4157  TIP3      OH2            32.2945086969       19.5057039104        7.7900163995  TIP3      4021            0.0000000000
     29436      4157  TIP3      H1             31.7485665534       19.7946215583        7.0526508088  TIP3      4021            0.0000000000
     29437      4157  TIP3      H2             31.7777634574       18.7321303491        8.1220342243  TIP3      4021            0.0000000000
     29438      4158  TIP3      OH2            33.3417447319       19.2793568052        3.6173853097  TIP3      4022            0.0000000000
     29439      4158  TIP3      H1             32.8376126504       18.9988475195        2.8271245388  TIP3      4022            0.0000000000
     29440      4158  TIP3      H2             32.9937931459       18.6103883694        4.2449484687  TIP3      4022            0.0000000000
     29441      4159  TIP3      OH2            20.5719956963       35.4689395212        3.5453148435  TIP3      4023            0.0000000000
     29442      4159  TIP3      H1             19.6800330760       35.5051360502        3.1440553705  TIP3      4023            0.0000000000
     29443      4159  TIP3      H2             20.7731398321       36.4211491705        3.4253934392  TIP3      4023            0.0000000000
     29444      4160  TIP3      OH2            22.3052589034       20.6159434101        1.2115747202  TIP3      4024            0.0000000000
     29445      4160  TIP3      H1             23.2080345253       20.2904014075        1.1436884994  TIP3      4024            0.0000000000
     29446      4160  TIP3      H2             22.4324162657       21.4682030665        1.6631170436  TIP3      4024            0.0000000000
     29447      4161  TIP3      OH2            27.7366490891       21.7429364747        3.6420678590  TIP3      4025            0.0000000000
     29448      4161  TIP3      H1             28.1976937326       21.2036835050        4.2974018358  TIP3      4025            0.0000000000
     29449      4161  TIP3      H2             27.8150750795       22.6210655589        4.0750158795  TIP3      4025            0.0000000000
     29450      4162  TIP3      OH2            29.4557697307       37.2981976088        1.9162830335  TIP3      4026            0.0000000000
     29451      4162  TIP3      H1             29.9631831386       37.7293161060        1.2136583556  TIP3      4026            0.0000000000
     29452      4162  TIP3      H2             29.7875605107       36.3829202013        1.8011039853  TIP3      4026            0.0000000000
     29453      4163  TIP3      OH2            36.0638027789       35.6609889567        5.1123232571  TIP3      4027            0.0000000000
     29454      4163  TIP3      H1             35.8776973609       34.9541541062        4.4479395771  TIP3      4027            0.0000000000
     29455      4163  TIP3      H2             35.9917026352       36.4443459477        4.5182452918  TIP3      4027            0.0000000000
     29456      4164  TIP3      OH2            21.2844580675       20.1811816777       16.7395154497  TIP3      4028            0.0000000000
     29457      4164  TIP3      H1             20.8656663630       19.3060535051       16.6026815952  TIP3      4028            0.0000000000
     29458      4164  TIP3      H2             22.1277244353       19.9542071832       17.1660423132  TIP3      4028            0.0000000000
     29459      4165  TIP3      OH2            23.6613811331       19.3881868809       18.4685757716  TIP3      4029            0.0000000000
     29460      4165  TIP3      H1             24.4747060664       19.1179027773       18.0060113758  TIP3      4029            0.0000000000
     29461      4165  TIP3      H2             23.3253289175       18.5203159831       18.7691166069  TIP3      4029            0.0000000000
     29462      4166  TIP3      OH2            22.3957377184       36.6946588385        1.0317042760  TIP3      4030            0.0000000000
     29463      4166  TIP3      H1             21.6309038193       36.9961527050        1.5517826110  TIP3      4030            0.0000000000
     29464      4166  TIP3      H2             22.4716792575       35.7632147540        1.2321265810  TIP3      4030            0.0000000000
     29465      4167  TIP3      OH2            32.1355117335       18.8395432226       18.7169027684  TIP3      4031            0.0000000000
     29466      4167  TIP3      H1             32.1166997863       18.0671733861       19.3023079971  TIP3      4031            0.0000000000
     29467      4167  TIP3      H2             32.9139071523       18.6813943696       18.1391918707  TIP3      4031            0.0000000000
     29468      4168  TIP3      OH2            35.1759460390       34.7959828472       16.8202206664  TIP3      4032            0.0000000000
     29469      4168  TIP3      H1             34.4829675994       34.5399534581       16.1723025505  TIP3      4032            0.0000000000
     29470      4168  TIP3      H2             34.9509689810       35.7475992464       16.8525398892  TIP3      4032            0.0000000000
     29471      4169  TIP3      OH2            50.0558340151       28.8442906406        6.8230510151  TIP3      4033            0.0000000000
     29472      4169  TIP3      H1             49.7684871353       29.7833801904        6.7385859446  TIP3      4033            0.0000000000
     29473      4169  TIP3      H2             49.3332029325       28.3791369964        6.3746704778  TIP3      4033            0.0000000000
     29474      4170  TIP3      OH2            48.6845554626       27.3797030741       10.0536676444  TIP3      4034            0.0000000000
     29475      4170  TIP3      H1             48.6915678260       27.0176628973       10.9634052117  TIP3      4034            0.0000000000
     29476      4170  TIP3      H2             47.9148259607       26.9436477893        9.6460796482  TIP3      4034            0.0000000000
     29477      4171  TIP3      OH2            40.9404353125       27.8022481040       11.8637690868  TIP3      4035            0.0000000000
     29478      4171  TIP3      H1             40.8460147848       26.9883753008       12.3770126554  TIP3      4035            0.0000000000
     29479      4171  TIP3      H2             41.9178637107       27.8932404738       11.8358388183  TIP3      4035            0.0000000000
     29480      4172  TIP3      OH2            52.1332718120       30.7386924813        8.8942768157  TIP3      4036            0.0000000000
     29481      4172  TIP3      H1             51.9326079861       30.0536681139        9.5631412339  TIP3      4036            0.0000000000
     29482      4172  TIP3      H2             52.3166540836       31.5334495438        9.4242195681  TIP3      4036            0.0000000000
     29483      4173  TIP3      OH2            41.8425073513       32.2024457877        9.7544513311  TIP3      4037            0.0000000000
     29484      4173  TIP3      H1             41.5762238409       31.2652130826        9.6276816249  TIP3      4037            0.0000000000
     29485      4173  TIP3      H2             42.8057364280       32.0849738490        9.6521806269  TIP3      4037            0.0000000000
     29486      4174  TIP3      OH2            38.7445525814       25.0695659829        5.7177291616  TIP3      4038            0.0000000000
     29487      4174  TIP3      H1             38.4786826311       25.9272788557        6.0837796318  TIP3      4038            0.0000000000
     29488      4174  TIP3      H2             38.2078029640       25.0759245842        4.9076517653  TIP3      4038            0.0000000000
     29489      4175  TIP3      OH2            38.9905135724       27.9049526445        7.9967666190  TIP3      4039            0.0000000000
     29490      4175  TIP3      H1             39.5085173324       27.1274605503        8.3135108498  TIP3      4039            0.0000000000
     29491      4175  TIP3      H2             39.6947069507       28.4952813466        7.6901385098  TIP3      4039            0.0000000000
     29492      4176  TIP3      OH2            49.6682658937       36.1991052153        8.5945936337  TIP3      4040            0.0000000000
     29493      4176  TIP3      H1             50.3010724513       35.6280302925        8.0961624119  TIP3      4040            0.0000000000
     29494      4176  TIP3      H2             49.3678227603       35.5839621589        9.2716682516  TIP3      4040            0.0000000000
     29495      4177  TIP3      OH2            46.6068049010       30.3993041478       11.2130289132  TIP3      4041            0.0000000000
     29496      4177  TIP3      H1             46.9662021456       30.3172043115       10.3175919197  TIP3      4041            0.0000000000
     29497      4177  TIP3      H2             47.4463907890       30.4401429437       11.7260873030  TIP3      4041            0.0000000000
     29498      4178  TIP3      OH2            55.4125492582       22.0651989895       10.7381269799  TIP3      4042            0.0000000000
     29499      4178  TIP3      H1             55.6377540184       22.4476281909       11.6070206493  TIP3      4042            0.0000000000
     29500      4178  TIP3      H2             56.2944350433       22.0246212454       10.3303387363  TIP3      4042            0.0000000000
     29501      4179  TIP3      OH2            50.6238307710       24.7802922189       11.2646770484  TIP3      4043            0.0000000000
     29502      4179  TIP3      H1             50.7668791896       23.8561721615       11.5348126547  TIP3      4043            0.0000000000
     29503      4179  TIP3      H2             50.5403808463       24.6652833746       10.2967993002  TIP3      4043            0.0000000000
     29504      4180  TIP3      OH2            43.7580624108       22.5193578019        7.8217183838  TIP3      4044            0.0000000000
     29505      4180  TIP3      H1             43.7583918528       23.4011869195        7.3936552906  TIP3      4044            0.0000000000
     29506      4180  TIP3      H2             43.0976528366       22.0506355737        7.2818183296  TIP3      4044            0.0000000000
     29507      4181  TIP3      OH2            50.8965337208       22.9097366788        6.6590420252  TIP3      4045            0.0000000000
     29508      4181  TIP3      H1             51.4200024257       22.5585576323        7.4176319821  TIP3      4045            0.0000000000
     29509      4181  TIP3      H2             51.4249479673       23.6809024237        6.4036644791  TIP3      4045            0.0000000000
     29510      4182  TIP3      OH2            40.3585522377       25.7695393974        9.0589760041  TIP3      4046            0.0000000000
     29511      4182  TIP3      H1             40.6605367528       25.1796292531        9.7725113689  TIP3      4046            0.0000000000
     29512      4182  TIP3      H2             40.5122343483       25.1995191247        8.2742683808  TIP3      4046            0.0000000000
     29513      4183  TIP3      OH2            44.6056369364       26.8662839063        8.3703083281  TIP3      4047            0.0000000000
     29514      4183  TIP3      H1             45.4631807522       26.4486359810        8.5782774329  TIP3      4047            0.0000000000
     29515      4183  TIP3      H2             44.2457118407       26.2222504195        7.7212622859  TIP3      4047            0.0000000000
     29516      4184  TIP3      OH2            55.6722165812       23.1916099654       13.5467115289  TIP3      4048            0.0000000000
     29517      4184  TIP3      H1             55.3222025208       24.0926230877       13.3363323453  TIP3      4048            0.0000000000
     29518      4184  TIP3      H2             56.3488598519       23.4101061600       14.1964860623  TIP3      4048            0.0000000000
     29519      4185  TIP3      OH2            42.5134534573       21.9404534187       12.3434937990  TIP3      4049            0.0000000000
     29520      4185  TIP3      H1             42.0155667966       22.3902271452       11.6329652340  TIP3      4049            0.0000000000
     29521      4185  TIP3      H2             41.8519172545       21.9403389382       13.0660438393  TIP3      4049            0.0000000000
     29522      4186  TIP3      OH2            49.1455059581       31.1464866435        5.7660231095  TIP3      4050            0.0000000000
     29523      4186  TIP3      H1             48.9766541408       31.2720163314        4.8191884884  TIP3      4050            0.0000000000
     29524      4186  TIP3      H2             48.7835834690       32.0124297720        6.0942259361  TIP3      4050            0.0000000000
     29525      4187  TIP3      OH2            44.4054604234       29.3467668298       12.2424588135  TIP3      4051            0.0000000000
     29526      4187  TIP3      H1             43.8275307366       30.0575835366       12.6028288063  TIP3      4051            0.0000000000
     29527      4187  TIP3      H2             45.1714540173       29.8667873755       11.8985198212  TIP3      4051            0.0000000000
     29528      4188  TIP3      OH2            52.8344654952       22.2434944131        8.5136484773  TIP3      4052            0.0000000000
     29529      4188  TIP3      H1             53.0071142552       21.4691088594        9.0668757332  TIP3      4052            0.0000000000
     29530      4188  TIP3      H2             53.4941526410       22.8592429310        8.8605783718  TIP3      4052            0.0000000000
     29531      4189  TIP3      OH2            41.9953501239       23.5841490677       10.0328855374  TIP3      4053            0.0000000000
     29532      4189  TIP3      H1             42.6316316709       24.2239196965       10.4372742937  TIP3      4053            0.0000000000
     29533      4189  TIP3      H2             42.4676589514       23.3638792914        9.2134513547  TIP3      4053            0.0000000000
     29534      4190  TIP3      OH2            43.2561167272       31.6293984523       13.0386737386  TIP3      4054            0.0000000000
     29535      4190  TIP3      H1             43.1383113743       32.4497826909       12.5355366165  TIP3      4054            0.0000000000
     29536      4190  TIP3      H2             42.3877222243       31.5721113281       13.5078210144  TIP3      4054            0.0000000000
     29537      4191  TIP3      OH2            38.9976887086       30.8751828628        4.2139639422  TIP3      4055            0.0000000000
     29538      4191  TIP3      H1             38.9424975329       31.2963331769        3.3359773107  TIP3      4055            0.0000000000
     29539      4191  TIP3      H2             39.2476372343       31.6295085224        4.7833443987  TIP3      4055            0.0000000000
     29540      4192  TIP3      OH2            52.7314331998       33.0299787437       10.7834857879  TIP3      4056            0.0000000000
     29541      4192  TIP3      H1             51.7871978678       33.0050391585       11.0541919940  TIP3      4056            0.0000000000
     29542      4192  TIP3      H2             52.7395501210       33.9072098028       10.3544719722  TIP3      4056            0.0000000000
     29543      4193  TIP3      OH2            52.8147307697       21.0194160804       12.0218078130  TIP3      4057            0.0000000000
     29544      4193  TIP3      H1             52.0288359512       21.2791550499       11.4872297800  TIP3      4057            0.0000000000
     29545      4193  TIP3      H2             53.5261372812       21.3766066694       11.4560508509  TIP3      4057            0.0000000000
     29546      4194  TIP3      OH2            45.5632304796       19.1082513084        9.5855444842  TIP3      4058            0.0000000000
     29547      4194  TIP3      H1             45.2842300454       18.1927793369        9.7414557782  TIP3      4058            0.0000000000
     29548      4194  TIP3      H2             44.7438928202       19.5708527090        9.8949164304  TIP3      4058            0.0000000000
     29549      4195  TIP3      OH2            51.2477537408       34.7013086940        6.9886108114  TIP3      4059            0.0000000000
     29550      4195  TIP3      H1             51.5374726527       33.8122017319        6.6910084569  TIP3      4059            0.0000000000
     29551      4195  TIP3      H2             52.1166651835       35.1771657228        6.9998460439  TIP3      4059            0.0000000000
     29552      4196  TIP3      OH2            52.2439889770       32.3512966809        5.8815475022  TIP3      4060            0.0000000000
     29553      4196  TIP3      H1             52.0274844251       31.7470851062        5.1604223823  TIP3      4060            0.0000000000
     29554      4196  TIP3      H2             52.0800184999       31.7790006715        6.6564694229  TIP3      4060            0.0000000000
     29555      4197  TIP3      OH2            53.9333018674       31.3481366838       14.5116899877  TIP3      4061            0.0000000000
     29556      4197  TIP3      H1             53.8684491222       30.6386424687       13.8291874729  TIP3      4061            0.0000000000
     29557      4197  TIP3      H2             54.1087072631       32.1242245536       13.9298020638  TIP3      4061            0.0000000000
     29558      4198  TIP3      OH2            48.4780189949       28.0353954656        4.1373697169  TIP3      4062            0.0000000000
     29559      4198  TIP3      H1             47.8572397745       28.8005392014        4.0949858094  TIP3      4062            0.0000000000
     29560      4198  TIP3      H2             49.3259524043       28.4562566937        3.8843842238  TIP3      4062            0.0000000000
     29561      4199  TIP3      OH2            48.3068160216       27.1520052503        1.4734433490  TIP3      4063            0.0000000000
     29562      4199  TIP3      H1             48.6806834930       27.3084451382        2.3694969621  TIP3      4063            0.0000000000
     29563      4199  TIP3      H2             49.0309370459       26.6899072842        1.0285456399  TIP3      4063            0.0000000000
     29564      4200  TIP3      OH2            55.9371323624       27.7852680300       12.4870701173  TIP3      4064            0.0000000000
     29565      4200  TIP3      H1             55.0754276696       28.1840926477       12.2756838082  TIP3      4064            0.0000000000
     29566      4200  TIP3      H2             56.4501534063       27.9903797703       11.6855426103  TIP3      4064            0.0000000000
     29567      4201  TIP3      OH2            52.3765924037       28.6284282597        5.5662331876  TIP3      4065            0.0000000000
     29568      4201  TIP3      H1             51.5486068729       28.7304347756        6.1038607727  TIP3      4065            0.0000000000
     29569      4201  TIP3      H2             52.8529228791       27.9454573501        6.0890634637  TIP3      4065            0.0000000000
     29570      4202  TIP3      OH2            51.9348307346       26.1332109011       14.6313932543  TIP3      4066            0.0000000000
     29571      4202  TIP3      H1             51.9257800052       27.0326799977       15.0064947424  TIP3      4066            0.0000000000
     29572      4202  TIP3      H2             51.2269908239       26.2283181007       13.9672237496  TIP3      4066            0.0000000000
     29573      4203  TIP3      OH2            43.3087114761       28.6476904802        6.8838058051  TIP3      4067            0.0000000000
     29574      4203  TIP3      H1             43.3339812876       28.2330092851        5.9991189789  TIP3      4067            0.0000000000
     29575      4203  TIP3      H2             43.9161022847       28.0768429074        7.4025903147  TIP3      4067            0.0000000000
     29576      4204  TIP3      OH2            44.8350695787       32.0318324887        9.8475064524  TIP3      4068            0.0000000000
     29577      4204  TIP3      H1             45.1440372915       31.8297550813        8.9547130022  TIP3      4068            0.0000000000
     29578      4204  TIP3      H2             45.3333607004       31.4260799706       10.4327763871  TIP3      4068            0.0000000000
     29579      4205  TIP3      OH2            43.4308256868       27.4853172419       10.7317362697  TIP3      4069            0.0000000000
     29580      4205  TIP3      H1             43.8988628015       27.3665692339        9.8740689191  TIP3      4069            0.0000000000
     29581      4205  TIP3      H2             43.9678905253       28.1900849511       11.1637766003  TIP3      4069            0.0000000000
     29582      4206  TIP3      OH2            50.1751307672       33.0313641190       11.3972634553  TIP3      4070            0.0000000000
     29583      4206  TIP3      H1             49.8458413990       33.6055022388       12.1075350669  TIP3      4070            0.0000000000
     29584      4206  TIP3      H2             50.0002771197       32.1277119050       11.7294163825  TIP3      4070            0.0000000000
     29585      4207  TIP3      OH2            44.8885780302       31.8584384398       15.2030469121  TIP3      4071            0.0000000000
     29586      4207  TIP3      H1             44.2397636105       32.4673676229       15.6222557426  TIP3      4071            0.0000000000
     29587      4207  TIP3      H2             44.3776961246       31.6614014191       14.3888320057  TIP3      4071            0.0000000000
     29588      4208  TIP3      OH2            51.0279947632       27.6605845667        3.2957638705  TIP3      4072            0.0000000000
     29589      4208  TIP3      H1             51.6281689024       28.0396753363        3.9674063557  TIP3      4072            0.0000000000
     29590      4208  TIP3      H2             51.3502921154       28.0769405988        2.4630669499  TIP3      4072            0.0000000000
     29591      4209  TIP3      OH2            41.7276424405       27.9368237262       14.5218024402  TIP3      4073            0.0000000000
     29592      4209  TIP3      H1             41.7556811506       28.7320684164       15.0622024249  TIP3      4073            0.0000000000
     29593      4209  TIP3      H2             40.7920086545       27.6667431214       14.5749709411  TIP3      4073            0.0000000000
     29594      4210  TIP3      OH2            48.5423048415       33.5553936442        6.5270040404  TIP3      4074            0.0000000000
     29595      4210  TIP3      H1             49.0277183883       33.9908732737        7.2321361364  TIP3      4074            0.0000000000
     29596      4210  TIP3      H2             48.2116934460       34.3037525355        6.0196407602  TIP3      4074            0.0000000000
     29597      4211  TIP3      OH2            43.1183772715       33.5891862819       16.2083566024  TIP3      4075            0.0000000000
     29598      4211  TIP3      H1             42.9284203590       34.0310321744       15.3497340629  TIP3      4075            0.0000000000
     29599      4211  TIP3      H2             42.2201648918       33.4522757803       16.5677284177  TIP3      4075            0.0000000000
     29600      4212  TIP3      OH2            54.7426161086       18.9495513505        3.3564799862  TIP3      4076            0.0000000000
     29601      4212  TIP3      H1             53.7673772127       19.0903519822        3.2921519047  TIP3      4076            0.0000000000
     29602      4212  TIP3      H2             55.0721424720       19.7879730081        2.9907770876  TIP3      4076            0.0000000000
     29603      4213  TIP3      OH2            42.5013387160       27.6108406895        4.3501401352  TIP3      4077            0.0000000000
     29604      4213  TIP3      H1             41.8603461421       28.3253148703        4.1671742397  TIP3      4077            0.0000000000
     29605      4213  TIP3      H2             41.9898864596       26.8012737685        4.2271887727  TIP3      4077            0.0000000000
     29606      4214  TIP3      OH2            55.5990934513       32.8403980753        1.0029656909  TIP3      4078            0.0000000000
     29607      4214  TIP3      H1             55.9964158130       33.6280320242        0.6012018988  TIP3      4078            0.0000000000
     29608      4214  TIP3      H2             56.4042122016       32.2790632841        1.1386267126  TIP3      4078            0.0000000000
     29609      4215  TIP3      OH2            38.6689930538       30.3835027404       13.6655311391  TIP3      4079            0.0000000000
     29610      4215  TIP3      H1             38.0609476285       30.3845272892       12.9080291309  TIP3      4079            0.0000000000
     29611      4215  TIP3      H2             39.1659800282       29.5658931614       13.4648584339  TIP3      4079            0.0000000000
     29612      4216  TIP3      OH2            38.4998042318       33.0421814803       10.2751734830  TIP3      4080            0.0000000000
     29613      4216  TIP3      H1             39.4523042290       32.9240406743       10.4109961806  TIP3      4080            0.0000000000
     29614      4216  TIP3      H2             38.3252935091       33.7835335416       10.8681637570  TIP3      4080            0.0000000000
     29615      4217  TIP3      OH2            56.6132157623       33.4701591466       16.0774532696  TIP3      4081            0.0000000000
     29616      4217  TIP3      H1             56.4822344542       32.5183041572       15.9352483361  TIP3      4081            0.0000000000
     29617      4217  TIP3      H2             55.7117528895       33.7291334774       16.3964587654  TIP3      4081            0.0000000000
     29618      4218  TIP3      OH2            47.5733165870       33.0480048037       15.0864593021  TIP3      4082            0.0000000000
     29619      4218  TIP3      H1             47.5181754547       33.8727367946       15.6039805781  TIP3      4082            0.0000000000
     29620      4218  TIP3      H2             46.6512191938       32.7088385490       15.0870626640  TIP3      4082            0.0000000000
     29621      4219  TIP3      OH2            47.9970913324       36.8815688052        4.4124545587  TIP3      4083            0.0000000000
     29622      4219  TIP3      H1             48.0124366133       37.1187033386        3.4616819433  TIP3      4083            0.0000000000
     29623      4219  TIP3      H2             47.8833987216       37.7592186315        4.8276371889  TIP3      4083            0.0000000000
     29624      4220  TIP3      OH2            41.6583538890       35.7133138818        6.5631953194  TIP3      4084            0.0000000000
     29625      4220  TIP3      H1             41.8932608722       35.3012624885        7.4174426137  TIP3      4084            0.0000000000
     29626      4220  TIP3      H2             40.8301164615       35.2444435648        6.3279878907  TIP3      4084            0.0000000000
     29627      4221  TIP3      OH2            51.1543200358       36.3446196401        1.7169719794  TIP3      4085            0.0000000000
     29628      4221  TIP3      H1             51.5276385600       35.5075059397        1.3847648149  TIP3      4085            0.0000000000
     29629      4221  TIP3      H2             51.0623038410       36.1547920748        2.6745030334  TIP3      4085            0.0000000000
     29630      4222  TIP3      OH2            50.5570117324       35.9143688494        4.3184468793  TIP3      4086            0.0000000000
     29631      4222  TIP3      H1             49.5893523920       36.0776320588        4.3705487859  TIP3      4086            0.0000000000
     29632      4222  TIP3      H2             50.6738589195       35.2511403779        5.0131503909  TIP3      4086            0.0000000000
     29633      4223  TIP3      OH2            53.2908443981       24.8742676773       16.5952921851  TIP3      4087            0.0000000000
     29634      4223  TIP3      H1             52.7486461136       25.2842991441       15.8904614501  TIP3      4087            0.0000000000
     29635      4223  TIP3      H2             53.3414093802       23.9528182277       16.2846325555  TIP3      4087            0.0000000000
     29636      4224  TIP3      OH2            40.9947663879       31.7316689608       14.4457733993  TIP3      4088            0.0000000000
     29637      4224  TIP3      H1             41.2003407088       31.2751095567       15.3008111032  TIP3      4088            0.0000000000
     29638      4224  TIP3      H2             40.0884019258       31.4035922142       14.2713582562  TIP3      4088            0.0000000000
     29639      4225  TIP3      OH2            43.3838094615       20.1225067695       10.6222756719  TIP3      4089            0.0000000000
     29640      4225  TIP3      H1             42.4736047333       20.1419893812       10.2681017355  TIP3      4089            0.0000000000
     29641      4225  TIP3      H2             43.2974895284       20.6979072580       11.4093219420  TIP3      4089            0.0000000000
     29642      4226  TIP3      OH2            48.3244010183       19.7659421585       13.6414952631  TIP3      4090            0.0000000000
     29643      4226  TIP3      H1             48.6256304490       19.3417764580       14.4752688779  TIP3      4090            0.0000000000
     29644      4226  TIP3      H2             47.3490098512       19.8172003116       13.7611912758  TIP3      4090            0.0000000000
     29645      4227  TIP3      OH2            50.9426851023       23.3540324628       14.8151287446  TIP3      4091            0.0000000000
     29646      4227  TIP3      H1             50.3939065102       23.0370127294       15.5762656264  TIP3      4091            0.0000000000
     29647      4227  TIP3      H2             51.0829430437       24.2771270620       15.0755119466  TIP3      4091            0.0000000000
     29648      4228  TIP3      OH2            52.0359704624       28.7159669677        1.1101338961  TIP3      4092            0.0000000000
     29649      4228  TIP3      H1             52.1470339712       28.6162328440        0.1573016853  TIP3      4092            0.0000000000
     29650      4228  TIP3      H2             52.7383544352       29.3616926038        1.3116864860  TIP3      4092            0.0000000000
     29651      4229  TIP3      OH2            47.7865174111       22.8449064711        1.2233526984  TIP3      4093            0.0000000000
     29652      4229  TIP3      H1             47.1984721426       23.3354086207        1.8197092967  TIP3      4093            0.0000000000
     29653      4229  TIP3      H2             47.5501679960       21.9400024798        1.4647934105  TIP3      4093            0.0000000000
     29654      4230  TIP3      OH2            43.5597742467       24.9404284508       11.6277605625  TIP3      4094            0.0000000000
     29655      4230  TIP3      H1             42.7543503959       24.7804175472       12.1619631962  TIP3      4094            0.0000000000
     29656      4230  TIP3      H2             43.5125459659       25.9143228725       11.5309780983  TIP3      4094            0.0000000000
     29657      4231  TIP3      OH2            43.5993228796       24.9661715567        6.4791260579  TIP3      4095            0.0000000000
     29658      4231  TIP3      H1             42.6339147651       24.7974945738        6.4692489174  TIP3      4095            0.0000000000
     29659      4231  TIP3      H2             43.8737101718       24.7510194036        5.5546286763  TIP3      4095            0.0000000000
     29660      4232  TIP3      OH2            49.1587275287       25.9094837659        5.5605578586  TIP3      4096            0.0000000000
     29661      4232  TIP3      H1             48.8504844686       26.6759612903        5.0188188621  TIP3      4096            0.0000000000
     29662      4232  TIP3      H2             49.8193051611       25.5477524011        4.9286071589  TIP3      4096            0.0000000000
     29663      4233  TIP3      OH2            47.4385684286       25.8867422983       17.6921073663  TIP3      4097            0.0000000000
     29664      4233  TIP3      H1             47.1549821617       24.9586760715       17.8530454573  TIP3      4097            0.0000000000
     29665      4233  TIP3      H2             48.4010139201       25.7979460293       17.6702105098  TIP3      4097            0.0000000000
     29666      4234  TIP3      OH2            50.4024089556       25.2471581640        8.4929505773  TIP3      4098            0.0000000000
     29667      4234  TIP3      H1             50.2385582237       26.1038993269        8.0508828017  TIP3      4098            0.0000000000
     29668      4234  TIP3      H2             50.0303931174       24.6396645741        7.8338652728  TIP3      4098            0.0000000000
     29669      4235  TIP3      OH2            41.1349327724       24.9687011310       12.9028782809  TIP3      4099            0.0000000000
     29670      4235  TIP3      H1             41.5163885937       25.3306635292       13.7270628181  TIP3      4099            0.0000000000
     29671      4235  TIP3      H2             40.6826308438       24.1651320554       13.2276148282  TIP3      4099            0.0000000000
     29672      4236  TIP3      OH2            44.3985230716       23.0142483006        0.7465907140  TIP3      4100            0.0000000000
     29673      4236  TIP3      H1             44.0725621974       22.3880724204        1.4275804134  TIP3      4100            0.0000000000
     29674      4236  TIP3      H2             44.0491603858       23.8694947322        1.0568754836  TIP3      4100            0.0000000000
     29675      4237  TIP3      OH2            38.0455390892       22.3280621032        7.7589554516  TIP3      4101            0.0000000000
     29676      4237  TIP3      H1             38.7168330998       22.3041563265        8.4783164237  TIP3      4101            0.0000000000
     29677      4237  TIP3      H2             38.5171607601       22.6918209315        6.9947593789  TIP3      4101            0.0000000000
     29678      4238  TIP3      OH2            38.9935276184       23.0413345008        2.6575919777  TIP3      4102            0.0000000000
     29679      4238  TIP3      H1             39.6090641640       23.3321211747        1.9500446414  TIP3      4102            0.0000000000
     29680      4238  TIP3      H2             38.4284495640       23.8440738466        2.7537869883  TIP3      4102            0.0000000000
     29681      4239  TIP3      OH2            49.0077353859       26.5521734964       12.7401976321  TIP3      4103            0.0000000000
     29682      4239  TIP3      H1             49.6940833339       25.9531189880       12.3713012658  TIP3      4103            0.0000000000
     29683      4239  TIP3      H2             48.5568782356       25.9635398968       13.3868917540  TIP3      4103            0.0000000000
     29684      4240  TIP3      OH2            46.7547873545       22.4400058770        7.2226334502  TIP3      4104            0.0000000000
     29685      4240  TIP3      H1             45.7965187874       22.3468599817        7.4162650502  TIP3      4104            0.0000000000
     29686      4240  TIP3      H2             47.1651824979       22.0350020371        8.0178263737  TIP3      4104            0.0000000000
     29687      4241  TIP3      OH2            41.0059422837       24.0599872701        6.7725860706  TIP3      4105            0.0000000000
     29688      4241  TIP3      H1             40.2628597819       24.3359415834        6.1883048675  TIP3      4105            0.0000000000
     29689      4241  TIP3      H2             41.3096912186       23.2253882513        6.3414871008  TIP3      4105            0.0000000000
     29690      4242  TIP3      OH2            44.3729852900       24.4231169948        3.9597057174  TIP3      4106            0.0000000000
     29691      4242  TIP3      H1             45.3177659692       24.6469139347        4.1271841105  TIP3      4106            0.0000000000
     29692      4242  TIP3      H2             44.1162010215       25.0005688432        3.2065114602  TIP3      4106            0.0000000000
     29693      4243  TIP3      OH2            50.5632779616       21.7383741706       10.7464755827  TIP3      4107            0.0000000000
     29694      4243  TIP3      H1             49.7793255371       21.8209397610       11.3305250950  TIP3      4107            0.0000000000
     29695      4243  TIP3      H2             50.2733750734       21.1415913885       10.0410271491  TIP3      4107            0.0000000000
     29696      4244  TIP3      OH2            43.6325323296       25.4982627130        1.6215904733  TIP3      4108            0.0000000000
     29697      4244  TIP3      H1             43.0602116869       25.3193756474        0.8631763670  TIP3      4108            0.0000000000
     29698      4244  TIP3      H2             44.3777575284       25.9893635593        1.1954423877  TIP3      4108            0.0000000000
     29699      4245  TIP3      OH2            53.3693588501       37.4672241070       17.0948114601  TIP3      4109            0.0000000000
     29700      4245  TIP3      H1             53.7594764538       37.9188394186       16.3240990026  TIP3      4109            0.0000000000
     29701      4245  TIP3      H2             54.0550688427       37.6245117236       17.7536063623  TIP3      4109            0.0000000000
     29702      4246  TIP3      OH2            41.2160537001       30.2326624138       16.6844059754  TIP3      4110            0.0000000000
     29703      4246  TIP3      H1             41.9205731059       30.1206118746       17.3379554325  TIP3      4110            0.0000000000
     29704      4246  TIP3      H2             40.4745875711       29.7514154868       17.1229916229  TIP3      4110            0.0000000000
     29705      4247  TIP3      OH2            46.8823256128       25.3973869383        9.2698348107  TIP3      4111            0.0000000000
     29706      4247  TIP3      H1             47.7894945728       25.1119010097        9.0591931964  TIP3      4111            0.0000000000
     29707      4247  TIP3      H2             46.5161496756       24.6233893097        9.7297869965  TIP3      4111            0.0000000000
     29708      4248  TIP3      OH2            41.8855663966       21.6428531660        5.8969295552  TIP3      4112            0.0000000000
     29709      4248  TIP3      H1             41.5139051040       20.8658532386        6.3942201593  TIP3      4112            0.0000000000
     29710      4248  TIP3      H2             42.4259348625       21.1751028435        5.2435767387  TIP3      4112            0.0000000000
     29711      4249  TIP3      OH2            45.7503126698       23.5118510915       11.8286957272  TIP3      4113            0.0000000000
     29712      4249  TIP3      H1             44.9472331838       24.0784810187       11.7382273604  TIP3      4113            0.0000000000
     29713      4249  TIP3      H2             46.4441338938       24.1434765316       12.0581076107  TIP3      4113            0.0000000000
     29714      4250  TIP3      OH2            46.7088227076       30.0167762987        4.0764018854  TIP3      4114            0.0000000000
     29715      4250  TIP3      H1             46.0215446851       29.4120146731        3.7295304592  TIP3      4114            0.0000000000
     29716      4250  TIP3      H2             46.2861768423       30.3291099316        4.9149308427  TIP3      4114            0.0000000000
     29717      4251  TIP3      OH2            53.7229049251       29.6175677940       12.4852656654  TIP3      4115            0.0000000000
     29718      4251  TIP3      H1             54.3604056590       30.0151427271       11.8484266819  TIP3      4115            0.0000000000
     29719      4251  TIP3      H2             52.9492078611       29.4278678880       11.9101919640  TIP3      4115            0.0000000000
     29720      4252  TIP3      OH2            50.4667390532       22.9588946148        1.8562782429  TIP3      4116            0.0000000000
     29721      4252  TIP3      H1             49.6022161542       23.1708781934        1.4566722032  TIP3      4116            0.0000000000
     29722      4252  TIP3      H2             50.6544542564       23.7911962294        2.3326721999  TIP3      4116            0.0000000000
     29723      4253  TIP3      OH2            47.9925164974       30.4057250976       14.8073571752  TIP3      4117            0.0000000000
     29724      4253  TIP3      H1             47.4590701597       29.9984249992       15.5022919261  TIP3      4117            0.0000000000
     29725      4253  TIP3      H2             47.9051788992       31.3474355846       15.0572236805  TIP3      4117            0.0000000000
     29726      4254  TIP3      OH2            50.9403931077       25.0353019650        3.7219259931  TIP3      4118            0.0000000000
     29727      4254  TIP3      H1             51.7150940501       24.7838738556        4.2682568396  TIP3      4118            0.0000000000
     29728      4254  TIP3      H2             51.1950918299       25.9473473445        3.4542073925  TIP3      4118            0.0000000000
     29729      4255  TIP3      OH2            41.8552422954       29.4826915728        9.2008203685  TIP3      4119            0.0000000000
     29730      4255  TIP3      H1             42.2204640373       29.3025645508        8.3142582534  TIP3      4119            0.0000000000
     29731      4255  TIP3      H2             42.1045527817       28.6874376687        9.7035507879  TIP3      4119            0.0000000000
     29732      4256  TIP3      OH2            48.6172646373       31.4322475203        2.6494290638  TIP3      4120            0.0000000000
     29733      4256  TIP3      H1             48.3091251909       32.3363018265        2.8829819533  TIP3      4120            0.0000000000
     29734      4256  TIP3      H2             47.9400649418       30.8797702603        3.0930194813  TIP3      4120            0.0000000000
     29735      4257  TIP3      OH2            38.9998613927       27.3475563683       14.6859595705  TIP3      4121            0.0000000000
     29736      4257  TIP3      H1             38.3974766869       26.8145061795       15.2328175169  TIP3      4121            0.0000000000
     29737      4257  TIP3      H2             38.4919811587       27.3543697375       13.8458611376  TIP3      4121            0.0000000000
     29738      4258  TIP3      OH2            45.3750046410       27.4160558573       16.3713609212  TIP3      4122            0.0000000000
     29739      4258  TIP3      H1             45.0876494774       26.7252409131       15.7605300765  TIP3      4122            0.0000000000
     29740      4258  TIP3      H2             46.0267210540       26.9465856331       16.9311070846  TIP3      4122            0.0000000000
     29741      4259  TIP3      OH2            50.7111728984       32.5992036698       14.9770286278  TIP3      4123            0.0000000000
     29742      4259  TIP3      H1             49.8370157318       32.6792956337       14.5645537222  TIP3      4123            0.0000000000
     29743      4259  TIP3      H2             50.5102185206       33.0352692498       15.8260249693  TIP3      4123            0.0000000000
     29744      4260  TIP3      OH2            56.0439114434       24.8335786438        3.3039617363  TIP3      4124            0.0000000000
     29745      4260  TIP3      H1             55.3299467612       24.7356356204        2.6500507996  TIP3      4124            0.0000000000
     29746      4260  TIP3      H2             56.1603042960       25.8026198584        3.2286553396  TIP3      4124            0.0000000000
     29747      4261  TIP3      OH2            56.3340815032       30.6090106935       15.6598180704  TIP3      4125            0.0000000000
     29748      4261  TIP3      H1             55.4981756644       31.0215137235       15.3365175580  TIP3      4125            0.0000000000
     29749      4261  TIP3      H2             56.8260420909       30.5508549855       14.8205935218  TIP3      4125            0.0000000000
     29750      4262  TIP3      OH2            54.0311138632       33.9404392917        3.2887001077  TIP3      4126            0.0000000000
     29751      4262  TIP3      H1             53.9264544334       33.1495645990        3.8340080606  TIP3      4126            0.0000000000
     29752      4262  TIP3      H2             54.4992482829       33.6173193791        2.4994243665  TIP3      4126            0.0000000000
     29753      4263  TIP3      OH2            51.8266846811       28.6114544922       10.5631830721  TIP3      4127            0.0000000000
     29754      4263  TIP3      H1             50.9034267402       28.4164794088       10.3286277671  TIP3      4127            0.0000000000
     29755      4263  TIP3      H2             52.3033555437       27.8853898577       10.1003535014  TIP3      4127            0.0000000000
     29756      4264  TIP3      OH2            44.0040870131       33.0811908682        6.6589522948  TIP3      4128            0.0000000000
     29757      4264  TIP3      H1             44.2267688172       34.0292954845        6.5337232229  TIP3      4128            0.0000000000
     29758      4264  TIP3      H2             43.1981880663       33.0481770690        6.1430161196  TIP3      4128            0.0000000000
     29759      4265  TIP3      OH2            40.2116813656       27.9389360092        0.8682835321  TIP3      4129            0.0000000000
     29760      4265  TIP3      H1             40.6239213066       28.2776690974        1.6954371621  TIP3      4129            0.0000000000
     29761      4265  TIP3      H2             39.3616142023       27.6149572180        1.2007440878  TIP3      4129            0.0000000000
     29762      4266  TIP3      OH2            45.3582918503       30.7030839897        6.4080940416  TIP3      4130            0.0000000000
     29763      4266  TIP3      H1             44.8894269886       31.5704338296        6.4492326832  TIP3      4130            0.0000000000
     29764      4266  TIP3      H2             44.7346183047       30.0920051329        6.8268498693  TIP3      4130            0.0000000000
     29765      4267  TIP3      OH2            45.9564139508       34.7988063299       13.0955390602  TIP3      4131            0.0000000000
     29766      4267  TIP3      H1             46.5782973111       35.4261927856       12.7098880530  TIP3      4131            0.0000000000
     29767      4267  TIP3      H2             46.5112129434       34.3816377551       13.7793955158  TIP3      4131            0.0000000000
     29768      4268  TIP3      OH2            44.3476293383       35.7027564739        5.8797502931  TIP3      4132            0.0000000000
     29769      4268  TIP3      H1             43.4083336066       35.8624733300        6.1139988219  TIP3      4132            0.0000000000
     29770      4268  TIP3      H2             44.7526383843       36.5527224203        6.1632940213  TIP3      4132            0.0000000000
     29771      4269  TIP3      OH2            49.1344697949       30.5945554792       12.3959465273  TIP3      4133            0.0000000000
     29772      4269  TIP3      H1             48.8362921399       30.5152385108       13.3398303224  TIP3      4133            0.0000000000
     29773      4269  TIP3      H2             49.5138868588       29.7164773157       12.2240225385  TIP3      4133            0.0000000000
     29774      4270  TIP3      OH2            51.8905561680       31.9614231952        1.7180704555  TIP3      4134            0.0000000000
     29775      4270  TIP3      H1             52.1477567084       31.4407347629        2.5142775861  TIP3      4134            0.0000000000
     29776      4270  TIP3      H2             50.9617591172       31.6754536655        1.6498288906  TIP3      4134            0.0000000000
     29777      4271  TIP3      OH2            52.4427161947       35.0296250613       14.6126962800  TIP3      4135            0.0000000000
     29778      4271  TIP3      H1             51.5807019387       34.5912166478       14.4850014826  TIP3      4135            0.0000000000
     29779      4271  TIP3      H2             52.3954519981       35.7860567757       13.9813020694  TIP3      4135            0.0000000000
     29780      4272  TIP3      OH2            56.1540246756       36.1836970948        1.9147099640  TIP3      4136            0.0000000000
     29781      4272  TIP3      H1             56.5914958364       36.8553251691        1.3843130067  TIP3      4136            0.0000000000
     29782      4272  TIP3      H2             55.3873056655       36.6793880769        2.2803096011  TIP3      4136            0.0000000000
     29783      4273  TIP3      OH2            40.3565058213       22.5486704220       14.2603698570  TIP3      4137            0.0000000000
     29784      4273  TIP3      H1             39.5195304123       22.9374635052       14.5739577370  TIP3      4137            0.0000000000
     29785      4273  TIP3      H2             40.2596182285       21.6420143891       14.5908829332  TIP3      4137            0.0000000000
     29786      4274  TIP3      OH2            52.6659273207       30.3852055344        3.6531720240  TIP3      4138            0.0000000000
     29787      4274  TIP3      H1             52.4198884341       29.7293030774        4.3397938801  TIP3      4138            0.0000000000
     29788      4274  TIP3      H2             53.6363306311       30.3868207444        3.7580308257  TIP3      4138            0.0000000000
     29789      4275  TIP3      OH2            40.1325284945       34.2377833711       12.4246985258  TIP3      4139            0.0000000000
     29790      4275  TIP3      H1             40.6400202643       33.4286820191       12.6033592266  TIP3      4139            0.0000000000
     29791      4275  TIP3      H2             40.5187538947       34.8366093433       13.0867266357  TIP3      4139            0.0000000000
     29792      4276  TIP3      OH2            44.5774068907       32.3131152680        2.5639270058  TIP3      4140            0.0000000000
     29793      4276  TIP3      H1             45.2589741574       31.7731891629        2.9931755775  TIP3      4140            0.0000000000
     29794      4276  TIP3      H2             44.8063520197       33.2204987012        2.8807862767  TIP3      4140            0.0000000000
     29795      4277  TIP3      OH2            41.1958314816       29.6168972572        2.8670372937  TIP3      4141            0.0000000000
     29796      4277  TIP3      H1             40.5918998814       30.1056902537        3.4594831062  TIP3      4141            0.0000000000
     29797      4277  TIP3      H2             41.7487843678       30.3106037670        2.4601720493  TIP3      4141            0.0000000000
     29798      4278  TIP3      OH2            49.0502073778       22.4900463694       13.0273412043  TIP3      4142            0.0000000000
     29799      4278  TIP3      H1             49.7752506413       22.8705105170       13.5575287009  TIP3      4142            0.0000000000
     29800      4278  TIP3      H2             48.8946352476       21.6196397461       13.4467857512  TIP3      4142            0.0000000000
     29801      4279  TIP3      OH2            49.7922350115       21.8818804003        4.4147227462  TIP3      4143            0.0000000000
     29802      4279  TIP3      H1             50.1938028380       22.2435311832        3.5981931514  TIP3      4143            0.0000000000
     29803      4279  TIP3      H2             50.3787656702       22.2355221145        5.1109685887  TIP3      4143            0.0000000000
     29804      4280  TIP3      OH2            47.7417775807       33.8385217476        3.4523780904  TIP3      4144            0.0000000000
     29805      4280  TIP3      H1             47.0289376644       34.4960464270        3.5601112599  TIP3      4144            0.0000000000
     29806      4280  TIP3      H2             48.2563740388       34.2138251971        2.7087471449  TIP3      4144            0.0000000000
     29807      4281  TIP3      OH2            46.9457309705       24.0490878315        4.9275618534  TIP3      4145            0.0000000000
     29808      4281  TIP3      H1             47.7480125258       24.5659062790        5.1203238278  TIP3      4145            0.0000000000
     29809      4281  TIP3      H2             46.9209626075       23.4283203655        5.6831081356  TIP3      4145            0.0000000000
     29810      4282  TIP3      OH2            47.9009752144       24.8744818816       14.6941083601  TIP3      4146            0.0000000000
     29811      4282  TIP3      H1             47.6625618997       25.1327385647       15.5976847268  TIP3      4146            0.0000000000
     29812      4282  TIP3      H2             48.0689553451       23.9237069086       14.7724246033  TIP3      4146            0.0000000000
     29813      4283  TIP3      OH2            47.7748919612       20.5387098477        5.6426749464  TIP3      4147            0.0000000000
     29814      4283  TIP3      H1             47.4702189138       21.1482261469        6.3474456461  TIP3      4147            0.0000000000
     29815      4283  TIP3      H2             48.5297352303       21.0676704303        5.2789240978  TIP3      4147            0.0000000000
     29816      4284  TIP3      OH2            45.0750716748       34.8765199984        3.2692115114  TIP3      4148            0.0000000000
     29817      4284  TIP3      H1             45.2032426136       35.7258124770        2.7876132868  TIP3      4148            0.0000000000
     29818      4284  TIP3      H2             44.7435267220       35.2370209250        4.1197853407  TIP3      4148            0.0000000000
     29819      4285  TIP3      OH2            43.3548553038       21.6451937452        2.8393907721  TIP3      4149            0.0000000000
     29820      4285  TIP3      H1             43.1330003156       22.4780020338        3.2904089718  TIP3      4149            0.0000000000
     29821      4285  TIP3      H2             44.1986299618       21.4575327134        3.3114279668  TIP3      4149            0.0000000000
     29822      4286  TIP3      OH2            53.5001274696       22.5726523583       15.2942797371  TIP3      4150            0.0000000000
     29823      4286  TIP3      H1             52.5809554369       22.5386285657       14.9477919491  TIP3      4150            0.0000000000
     29824      4286  TIP3      H2             54.0056803366       22.7124063698       14.4717747324  TIP3      4150            0.0000000000
     29825      4287  TIP3      OH2            52.7726957802       26.3668086250        9.3035084148  TIP3      4151            0.0000000000
     29826      4287  TIP3      H1             52.0145307516       25.7509522245        9.3173238697  TIP3      4151            0.0000000000
     29827      4287  TIP3      H2             53.4400160366       25.8641640819        9.8335644898  TIP3      4151            0.0000000000
     29828      4288  TIP3      OH2            41.8311677248       32.4182091996        1.5425919220  TIP3      4152            0.0000000000
     29829      4288  TIP3      H1             42.5885156829       32.8283420214        1.9956777716  TIP3      4152            0.0000000000
     29830      4288  TIP3      H2             42.3237637517       31.7570373543        1.0288120483  TIP3      4152            0.0000000000
     29831      4289  TIP3      OH2            40.2730370239       25.0139697829        0.7397059024  TIP3      4153            0.0000000000
     29832      4289  TIP3      H1             40.6788738541       25.8642324416        0.5212193470  TIP3      4153            0.0000000000
     29833      4289  TIP3      H2             39.4224621218       25.0698102144        0.2784833543  TIP3      4153            0.0000000000
     29834      4290  TIP3      OH2            53.2040052661       35.8853300578       10.6170263841  TIP3      4154            0.0000000000
     29835      4290  TIP3      H1             53.2386112601       36.6470398767       10.0007819737  TIP3      4154            0.0000000000
     29836      4290  TIP3      H2             54.1585400939       35.6396479646       10.5952373978  TIP3      4154            0.0000000000
     29837      4291  TIP3      OH2            40.7833828140       19.8297543187        9.8807721075  TIP3      4155            0.0000000000
     29838      4291  TIP3      H1             40.9340307003       19.5590913564        8.9476984708  TIP3      4155            0.0000000000
     29839      4291  TIP3      H2             40.6696450687       18.9327183473       10.2953379756  TIP3      4155            0.0000000000
     29840      4292  TIP3      OH2            39.7239104503       33.7800532469        5.7619733872  TIP3      4156            0.0000000000
     29841      4292  TIP3      H1             38.8606681025       34.1368123391        6.0024095233  TIP3      4156            0.0000000000
     29842      4292  TIP3      H2             39.7968812542       34.1514331941        4.8559354154  TIP3      4156            0.0000000000
     29843      4293  TIP3      OH2            39.0763612578       35.8368728039       16.6804079496  TIP3      4157            0.0000000000
     29844      4293  TIP3      H1             39.7109608252       35.4534735762       17.2951309804  TIP3      4157            0.0000000000
     29845      4293  TIP3      H2             38.6035385752       35.0270311766       16.3691786311  TIP3      4157            0.0000000000
     29846      4294  TIP3      OH2            43.3660683435       35.4404758045       18.5079637018  TIP3      4158            0.0000000000
     29847      4294  TIP3      H1             43.9743174892       36.1868178424       18.6626509873  TIP3      4158            0.0000000000
     29848      4294  TIP3      H2             43.6839218089       35.0328652137       17.6796290448  TIP3      4158            0.0000000000
     29849      4295  TIP3      OH2            48.6109560298       34.8117569292        1.0448017543  TIP3      4159            0.0000000000
     29850      4295  TIP3      H1             47.8968575255       34.3251900238        0.5901918306  TIP3      4159            0.0000000000
     29851      4295  TIP3      H2             49.0750613310       35.1458112250        0.2505246757  TIP3      4159            0.0000000000
     29852      4296  TIP3      OH2            50.1090561611       33.9655844363       17.3254548335  TIP3      4160            0.0000000000
     29853      4296  TIP3      H1             49.8671826502       33.0480733592       17.5938111429  TIP3      4160            0.0000000000
     29854      4296  TIP3      H2             51.0266461133       34.0216753373       17.6911096553  TIP3      4160            0.0000000000
     29855      4297  TIP3      OH2            52.8568158392       34.3398458383        0.3517014763  TIP3      4161            0.0000000000
     29856      4297  TIP3      H1             52.4179011631       33.5970297350        0.8146097593  TIP3      4161            0.0000000000
     29857      4297  TIP3      H2             53.7622387150       34.1388596881        0.6353338340  TIP3      4161            0.0000000000
     29858      4298  TIP3      OH2            38.9126553900       29.6519295205       17.9086419548  TIP3      4162            0.0000000000
     29859      4298  TIP3      H1             38.9417472064       28.6736534746       17.9324108220  TIP3      4162            0.0000000000
     29860      4298  TIP3      H2             38.1242791115       29.8179249294       17.3508128237  TIP3      4162            0.0000000000
     29861      4299  TIP3      OH2            43.3535517057       30.1640782625        0.7845946548  TIP3      4163            0.0000000000
     29862      4299  TIP3      H1             43.9679069886       29.8777115155        1.4961270958  TIP3      4163            0.0000000000
     29863      4299  TIP3      H2             43.9465731754       30.1116221331        0.0171372055  TIP3      4163            0.0000000000
     29864      4300  TIP3      OH2            45.7143370178       29.9689081122       17.0546220706  TIP3      4164            0.0000000000
     29865      4300  TIP3      H1             45.3950315972       30.6293262289       16.4004556546  TIP3      4164            0.0000000000
     29866      4300  TIP3      H2             45.4881215797       29.0983165925       16.6343266690  TIP3      4164            0.0000000000
     29867      4301  TIP3      OH2            51.3022263128       29.7997876874       14.8977883744  TIP3      4165            0.0000000000
     29868      4301  TIP3      H1             52.1802736911       30.2270133230       14.9780101592  TIP3      4165            0.0000000000
     29869      4301  TIP3      H2             50.7748795172       30.6187121095       15.0030430435  TIP3      4165            0.0000000000
     29870      4302  TIP3      OH2            40.0927475388       27.2204312155       17.7720980989  TIP3      4166            0.0000000000
     29871      4302  TIP3      H1             39.9487312634       26.8851919345       16.8764704088  TIP3      4166            0.0000000000
     29872      4302  TIP3      H2             40.2505426212       26.4002902248       18.2890403740  TIP3      4166            0.0000000000
     29873      4303  TIP3      OH2            44.6844892484       28.6347539882        2.6382921931  TIP3      4167            0.0000000000
     29874      4303  TIP3      H1             43.9372002478       28.1693526332        3.0609915968  TIP3      4167            0.0000000000
     29875      4303  TIP3      H2             45.0737440983       27.9293131712        2.0882322750  TIP3      4167            0.0000000000
     29876      4304  TIP3      OH2            43.6588516193       26.1847543093       14.2894443991  TIP3      4168            0.0000000000
     29877      4304  TIP3      H1             43.1338658581       26.9608876972       14.5760219720  TIP3      4168            0.0000000000
     29878      4304  TIP3      H2             44.4204063315       26.6322494229       13.8672249371  TIP3      4168            0.0000000000
     29879      4305  TIP3      OH2            45.8676915265       26.6146677193        0.5928371658  TIP3      4169            0.0000000000
     29880      4305  TIP3      H1             46.1399680560       26.6466163191       -0.3343901874  TIP3      4169            0.0000000000
     29881      4305  TIP3      H2             46.7336932932       26.7490325901        1.0599730789  TIP3      4169            0.0000000000
     29882      4306  TIP3      OH2            49.1312836820       28.8452871621       18.3149045305  TIP3      4170            0.0000000000
     29883      4306  TIP3      H1             50.0051362819       28.8472581979       17.8850996262  TIP3      4170            0.0000000000
     29884      4306  TIP3      H2             49.1133869665       27.9801307355       18.7384383928  TIP3      4170            0.0000000000
     29885      4307  TIP3      OH2            55.0040736028       29.4369341289       84.9008328374  TIP3      4171            0.0000000000
     29886      4307  TIP3      H1             54.7342611648       29.5913126132       83.9845126228  TIP3      4171            0.0000000000
     29887      4307  TIP3      H2             55.2026250860       30.3239874248       85.2246359854  TIP3      4171            0.0000000000
     29888      4308  TIP3      OH2            44.3801392131       24.0031855587       15.5234422533  TIP3      4172            0.0000000000
     29889      4308  TIP3      H1             44.5674262801       23.3631181519       14.8037137532  TIP3      4172            0.0000000000
     29890      4308  TIP3      H2             44.1982688371       24.8243367625       15.0006599152  TIP3      4172            0.0000000000
     29891      4309  TIP3      OH2            44.7893545806       21.9495665188       13.7113658830  TIP3      4173            0.0000000000
     29892      4309  TIP3      H1             45.2792020399       22.4135592432       12.9850902395  TIP3      4173            0.0000000000
     29893      4309  TIP3      H2             43.9024035730       21.9193344705       13.2849276390  TIP3      4173            0.0000000000
     29894      4310  TIP3      OH2            45.9168745113       27.5610565181       13.4497827302  TIP3      4174            0.0000000000
     29895      4310  TIP3      H1             46.8206784960       27.7936320087       13.1994707103  TIP3      4174            0.0000000000
     29896      4310  TIP3      H2             45.4188853349       28.3661924576       13.2005121162  TIP3      4174            0.0000000000
     29897      4311  TIP3      OH2            50.5138245071       24.9296478325       18.3205898775  TIP3      4175            0.0000000000
     29898      4311  TIP3      H1             50.8169783169       24.1008974369       18.7146325787  TIP3      4175            0.0000000000
     29899      4311  TIP3      H2             51.2497308810       25.5130119306       18.5384892940  TIP3      4175            0.0000000000
     29900      4312  TIP3      OH2            52.1399231671       28.3297384102       16.9565798340  TIP3      4176            0.0000000000
     29901      4312  TIP3      H1             51.7255674070       28.7932146403       16.1917697687  TIP3      4176            0.0000000000
     29902      4312  TIP3      H2             53.0812297550       28.2660261588       16.6669477180  TIP3      4176            0.0000000000
     29903      4313  TIP3      OH2            42.7669401198       24.7063072267       17.6664221312  TIP3      4177            0.0000000000
     29904      4313  TIP3      H1             41.9994612959       24.1168226225       17.5752115618  TIP3      4177            0.0000000000
     29905      4313  TIP3      H2             43.3532827336       24.3682503793       16.9536392460  TIP3      4177            0.0000000000
     29906      4314  TIP3      OH2            45.6325299391       19.4351325237       13.3948353197  TIP3      4178            0.0000000000
     29907      4314  TIP3      H1             45.3200288217       20.3620086284       13.4828698089  TIP3      4178            0.0000000000
     29908      4314  TIP3      H2             44.7984860302       18.9552531598       13.3166125027  TIP3      4178            0.0000000000
     29909      4315  TIP3      OH2            46.5159665046       23.4378390668       17.7762725488  TIP3      4179            0.0000000000
     29910      4315  TIP3      H1             45.9993236856       23.2889986923       18.5973576154  TIP3      4179            0.0000000000
     29911      4315  TIP3      H2             45.8166339712       23.3987211174       17.0962646276  TIP3      4179            0.0000000000
     29912      4316  TIP3      OH2            49.1865079989       22.7485482939       16.6912692725  TIP3      4180            0.0000000000
     29913      4316  TIP3      H1             48.3512104740       22.9557696980       17.1390467088  TIP3      4180            0.0000000000
     29914      4316  TIP3      H2             49.6126382914       22.1725456078       17.3597370514  TIP3      4180            0.0000000000
     29915      4317  TIP3      OH2            50.7477245525       21.2909969083       18.5578500869  TIP3      4181            0.0000000000
     29916      4317  TIP3      H1             50.8663636798       20.3215608927       18.6745555170  TIP3      4181            0.0000000000
     29917      4317  TIP3      H2             50.8772880403       21.5981305677       19.4839558022  TIP3      4181            0.0000000000
     29918      4318  TIP3      OH2            40.6958938915       22.6518831652       18.0218210389  TIP3      4182            0.0000000000
     29919      4318  TIP3      H1             41.1500053875       21.9214976686       17.5686000926  TIP3      4182            0.0000000000
     29920      4318  TIP3      H2             40.5969499098       22.3214799339       18.9342086257  TIP3      4182            0.0000000000
     29921      4319  TIP3      OH2            45.5738645595       19.1589315736       16.6181155017  TIP3      4183            0.0000000000
     29922      4319  TIP3      H1             46.3015080840       18.5128949435       16.6246771737  TIP3      4183            0.0000000000
     29923      4319  TIP3      H2             45.5834040340       19.4541979193       15.6945960462  TIP3      4183            0.0000000000
     29924      4320  TIP3      OH2            45.6547358762       20.3769050301       18.9894749928  TIP3      4184            0.0000000000
     29925      4320  TIP3      H1             45.4656100067       19.9879077102       18.1055755975  TIP3      4184            0.0000000000
     29926      4320  TIP3      H2             44.9419482097       21.0226952082       19.1253843807  TIP3      4184            0.0000000000
     29927      4321  TIP3      OH2            45.5099501289       37.3636864187        2.2694467126  TIP3      4185            0.0000000000
     29928      4321  TIP3      H1             46.4018838628       37.7149033654        2.1213943544  TIP3      4185            0.0000000000
     29929      4321  TIP3      H2             44.9652282025       38.0965060959        1.9836048513  TIP3      4185            0.0000000000
     29930      4322  TIP3      OH2            39.0326447611       31.8574123939        1.1860864684  TIP3      4186            0.0000000000
     29931      4322  TIP3      H1             39.9965752625       31.9979884689        1.3022850265  TIP3      4186            0.0000000000
     29932      4322  TIP3      H2             39.0204145978       31.6086465956        0.2482139427  TIP3      4186            0.0000000000
     29933      4323  TIP3      OH2            38.0512824919       37.0405931469        6.2357643167  TIP3      4187            0.0000000000
     29934      4323  TIP3      H1             37.3146384205       36.4901828720        5.8868396419  TIP3      4187            0.0000000000
     29935      4323  TIP3      H2             38.3436985738       36.4824659461        6.9866275294  TIP3      4187            0.0000000000
     29936      4324  TIP3      OH2            38.8637985051       35.3820109496        8.2044167485  TIP3      4188            0.0000000000
     29937      4324  TIP3      H1             38.5718554396       34.5470062265        8.6114165811  TIP3      4188            0.0000000000
     29938      4324  TIP3      H2             39.5094569184       35.6999664163        8.8777328748  TIP3      4188            0.0000000000
     29939      4325  TIP3      OH2            55.8360485494       35.9059376351       10.6598460688  TIP3      4189            0.0000000000
     29940      4325  TIP3      H1             56.4798405044       35.9053948852       11.3771246368  TIP3      4189            0.0000000000
     29941      4325  TIP3      H2             56.3829694060       36.0713737930        9.8748182218  TIP3      4189            0.0000000000
     29942      4326  TIP3      OH2            55.6361665927       35.8095173146       13.7705861303  TIP3      4190            0.0000000000
     29943      4326  TIP3      H1             55.1869710637       35.1510667950       13.1963974341  TIP3      4190            0.0000000000
     29944      4326  TIP3      H2             55.9370252234       35.2102101336       14.4752340447  TIP3      4190            0.0000000000
     29945      4327  TIP3      OH2            54.3240545334       31.4238197093       18.8173900695  TIP3      4191            0.0000000000
     29946      4327  TIP3      H1             53.4011598358       31.7205206241       18.8917884580  TIP3      4191            0.0000000000
     29947      4327  TIP3      H2             54.8139533328       32.2637001246       18.9706873694  TIP3      4191            0.0000000000
     29948      4328  TIP3      OH2            55.3590024120       29.8803118086        3.9187200852  TIP3      4192            0.0000000000
     29949      4328  TIP3      H1             56.2356134246       30.2752414422        4.1130181077  TIP3      4192            0.0000000000
     29950      4328  TIP3      H2             55.2340390069       29.3132708889        4.7025149765  TIP3      4192            0.0000000000
     29951      4329  TIP3      OH2            55.9082709095       27.7889863342        6.0387302077  TIP3      4193            0.0000000000
     29952      4329  TIP3      H1             55.0609122064       27.3496633924        6.2902947191  TIP3      4193            0.0000000000
     29953      4329  TIP3      H2             56.2631470593       27.9267754141        6.9381575749  TIP3      4193            0.0000000000
     29954      4330  TIP3      OH2            55.6697442061       30.6540457596       10.8768434654  TIP3      4194            0.0000000000
     29955      4330  TIP3      H1             56.3457607933       30.0254970083       10.5596495029  TIP3      4194            0.0000000000
     29956      4330  TIP3      H2             56.0671185046       31.5004784393       10.6234498206  TIP3      4194            0.0000000000
     29957      4331  TIP3      OH2            54.3364548223       33.5301616539       12.9703701323  TIP3      4195            0.0000000000
     29958      4331  TIP3      H1             53.6280970020       33.8956819337       13.5329290807  TIP3      4195            0.0000000000
     29959      4331  TIP3      H2             53.8643972579       33.3335171420       12.1276833771  TIP3      4195            0.0000000000
     29960      4332  TIP3      OH2            56.2024000607       27.4403872636        2.3786067375  TIP3      4196            0.0000000000
     29961      4332  TIP3      H1             55.4771798276       27.6949226663        1.7721573504  TIP3      4196            0.0000000000
     29962      4332  TIP3      H2             56.1004090451       28.1286698462        3.0605893765  TIP3      4196            0.0000000000
     29963      4333  TIP3      OH2            53.7642333730       24.7987522951        1.2749662643  TIP3      4197            0.0000000000
     29964      4333  TIP3      H1             54.2882979974       25.2598647821        0.6002694534  TIP3      4197            0.0000000000
     29965      4333  TIP3      H2             53.7765086082       23.8999863018        0.8907236511  TIP3      4197            0.0000000000
     29966      4334  TIP3      OH2            53.7273226698       26.6241974117        6.8903366410  TIP3      4198            0.0000000000
     29967      4334  TIP3      H1             53.4527507227       25.7351228871        6.5924075337  TIP3      4198            0.0000000000
     29968      4334  TIP3      H2             53.4797420229       26.5829270914        7.8484066191  TIP3      4198            0.0000000000
     29969      4335  TIP3      OH2            38.7029631418       28.5559716227       10.6527229380  TIP3      4199            0.0000000000
     29970      4335  TIP3      H1             38.6972370300       28.3066835657        9.7025096819  TIP3      4199            0.0000000000
     29971      4335  TIP3      H2             39.6535952741       28.3948471615       10.8831438301  TIP3      4199            0.0000000000
     29972      4336  TIP3      OH2            54.7469399126       28.3771378642       16.3507945480  TIP3      4200            0.0000000000
     29973      4336  TIP3      H1             55.2901760586       27.5529527032       16.3305288953  TIP3      4200            0.0000000000
     29974      4336  TIP3      H2             55.3585976901       29.0698559609       16.0371102948  TIP3      4200            0.0000000000
     29975      4337  TIP3      OH2            55.9122524221       25.9754628846       16.3126519710  TIP3      4201            0.0000000000
     29976      4337  TIP3      H1             55.0841615800       25.5667566873       16.6508046297  TIP3      4201            0.0000000000
     29977      4337  TIP3      H2             56.5827839562       25.3231227075       16.6171252507  TIP3      4201            0.0000000000
     29978      4338  TIP3      OH2            53.9312351145       22.4763731711       -0.1172354042  TIP3      4202            0.0000000000
     29979      4338  TIP3      H1             54.5547191985       22.0546693129        0.5314967058  TIP3      4202            0.0000000000
     29980      4338  TIP3      H2             53.0483283093       22.2979557014        0.2519711985  TIP3      4202            0.0000000000
     29981      4339  TIP3      OH2            53.1113915890       24.3388140309        5.2428720307  TIP3      4203            0.0000000000
     29982      4339  TIP3      H1             53.5056310002       23.5182832800        5.6159787906  TIP3      4203            0.0000000000
     29983      4339  TIP3      H2             53.6728416055       24.3905668387        4.4484734845  TIP3      4203            0.0000000000
     29984      4340  TIP3      OH2            54.3702825348       24.8157221366       10.6985962196  TIP3      4204            0.0000000000
     29985      4340  TIP3      H1             55.3545116488       24.8931510751       10.6938914993  TIP3      4204            0.0000000000
     29986      4340  TIP3      H2             54.2212700790       24.9113877749       11.6619092891  TIP3      4204            0.0000000000
     29987      4341  TIP3      OH2            54.2899317746       25.4533285952       13.3662539258  TIP3      4205            0.0000000000
     29988      4341  TIP3      H1             53.4095749266       25.5684201306       13.7809018843  TIP3      4205            0.0000000000
     29989      4341  TIP3      H2             54.7323284596       26.2730618341       13.6404343848  TIP3      4205            0.0000000000
     29990      4342  TIP3      OH2            38.3604401275       23.6664199843       16.9890722581  TIP3      4206            0.0000000000
     29991      4342  TIP3      H1             39.2141816539       23.3154613827       17.3266865946  TIP3      4206            0.0000000000
     29992      4342  TIP3      H2             37.7580447613       22.9291176498       17.2058857852  TIP3      4206            0.0000000000
     29993      4343  TIP3      OH2            55.9680291488       19.3337288262       18.1273951931  TIP3      4207            0.0000000000
     29994      4343  TIP3      H1             56.6089912365       18.7335188287       17.6955503440  TIP3      4207            0.0000000000
     29995      4343  TIP3      H2             56.4834748451       20.1468913332       18.1841900087  TIP3      4207            0.0000000000
     29996      4344  TIP3      OH2            54.2474711677       21.8225202985        5.2246530748  TIP3      4208            0.0000000000
     29997      4344  TIP3      H1             54.4854829464       21.2493473878        5.9840037636  TIP3      4208            0.0000000000
     29998      4344  TIP3      H2             53.6397105952       21.2420799030        4.7432959960  TIP3      4208            0.0000000000
     29999      4345  TIP3      OH2            39.6802623059       22.2650149087        9.9235226094  TIP3      4209            0.0000000000
     30000      4345  TIP3      H1             39.9766901100       21.3266756632        9.8781753182  TIP3      4209            0.0000000000
     30001      4345  TIP3      H2             40.5451896297       22.7306555499        9.9595859480  TIP3      4209            0.0000000000
     30002      4346  TIP3      OH2            38.0109830324       25.1518701369       10.7047376271  TIP3      4210            0.0000000000
     30003      4346  TIP3      H1             38.5125771555       24.6245176054       10.0721821081  TIP3      4210            0.0000000000
     30004      4346  TIP3      H2             38.5792612261       25.9176725610       10.8498988494  TIP3      4210            0.0000000000
     30005      4347  TIP3      OH2            55.6158440313       21.6819297056       16.6452358343  TIP3      4211            0.0000000000
     30006      4347  TIP3      H1             54.8058270521       22.0053913297       16.1968537046  TIP3      4211            0.0000000000
     30007      4347  TIP3      H2             55.6120703938       20.7638880406       16.3207837582  TIP3      4211            0.0000000000
     30008      4348  TIP3      OH2            55.7299799928       21.4974580025        1.6584866156  TIP3      4212            0.0000000000
     30009      4348  TIP3      H1             56.2331995389       20.8560086853        1.1366422468  TIP3      4212            0.0000000000
     30010      4348  TIP3      H2             56.4525499741       22.0805566839        1.9671209046  TIP3      4212            0.0000000000
     30011      4349  TIP3      OH2            38.2976799154       21.5066890280        4.8451031637  TIP3      4213            0.0000000000
     30012      4349  TIP3      H1             37.3587003790       21.6030422244        5.0690106183  TIP3      4213            0.0000000000
     30013      4349  TIP3      H2             38.3815960630       22.2186739113        4.1819010644  TIP3      4213            0.0000000000
     30014      4350  TIP3      OH2            53.4682463824       36.1971460210        7.2547590551  TIP3      4214            0.0000000000
     30015      4350  TIP3      H1             54.0052887090       36.1809821767        6.4321268435  TIP3      4214            0.0000000000
     30016      4350  TIP3      H2             53.7065385599       37.0654531492        7.6231149484  TIP3      4214            0.0000000000
     30017      4351  TIP3      OH2            38.4471124363       19.8373113128       13.2092387260  TIP3      4215            0.0000000000
     30018      4351  TIP3      H1             37.6369561722       19.6627407709       13.7355391833  TIP3      4215            0.0000000000
     30019      4351  TIP3      H2             38.1575224639       20.4813261633       12.5475216203  TIP3      4215            0.0000000000
     30020      4352  TIP3      OH2            40.6323582307       33.1509886392       17.2577858702  TIP3      4216            0.0000000000
     30021      4352  TIP3      H1             40.1825482304       32.7850355351       16.4804703143  TIP3      4216            0.0000000000
     30022      4352  TIP3      H2             39.9857559823       32.9560326092       17.9363399893  TIP3      4216            0.0000000000
     30023      4353  TIP3      OH2            43.2908114286       34.7579056409       13.6527180669  TIP3      4217            0.0000000000
     30024      4353  TIP3      H1             43.1651664075       35.6278518712       13.2128540423  TIP3      4217            0.0000000000
     30025      4353  TIP3      H2             44.2671519355       34.7059388054       13.5968765436  TIP3      4217            0.0000000000
     30026      4354  TIP3      OH2            47.2465355533       35.6533197900       15.9409521332  TIP3      4218            0.0000000000
     30027      4354  TIP3      H1             47.3240734686       35.5371765701       16.9104318932  TIP3      4218            0.0000000000
     30028      4354  TIP3      H2             48.1369057376       36.0009294824       15.7365375161  TIP3      4218            0.0000000000
     30029      4355  TIP3      OH2            49.4992556697       37.1691830907       15.7075197181  TIP3      4219            0.0000000000
     30030      4355  TIP3      H1             50.3435281360       36.8195471947       15.3876026784  TIP3      4219            0.0000000000
     30031      4355  TIP3      H2             49.7297026196       37.5213915769       16.5875413726  TIP3      4219            0.0000000000
     30032      4356  TIP3      OH2            54.9675253868       19.1629765747       15.0647063148  TIP3      4220            0.0000000000
     30033      4356  TIP3      H1             54.2611318565       19.5962900258       14.5680575219  TIP3      4220            0.0000000000
     30034      4356  TIP3      H2             55.0822064924       18.3288831448       14.5530111416  TIP3      4220            0.0000000000
     30035      4357  TIP3      OH2            40.6820255853       37.6369825604       13.4643128445  TIP3      4221            0.0000000000
     30036      4357  TIP3      H1             39.9004122117       38.1827188204       13.2122914963  TIP3      4221            0.0000000000
     30037      4357  TIP3      H2             40.5407678355       37.5434119273       14.4203256174  TIP3      4221            0.0000000000
     30038      4358  TIP3      OH2            42.9410346063       37.0180315427       12.2659022573  TIP3      4222            0.0000000000
     30039      4358  TIP3      H1             42.0043120271       37.1654594850       12.5475125268  TIP3      4222            0.0000000000
     30040      4358  TIP3      H2             43.0177466094       37.6818766081       11.5510773147  TIP3      4222            0.0000000000
     30041      4359  TIP3      OH2            48.0709958880       36.8867090484       11.5755316356  TIP3      4223            0.0000000000
     30042      4359  TIP3      H1             47.2681676096       37.1517711922       11.1067722074  TIP3      4223            0.0000000000
     30043      4359  TIP3      H2             48.1473851672       37.6051148604       12.2345290273  TIP3      4223            0.0000000000
     30044      4360  TIP3      OH2            49.9628747938       35.4949662866       12.7987123960  TIP3      4224            0.0000000000
     30045      4360  TIP3      H1             49.3248229484       35.9598044494       12.2118457443  TIP3      4224            0.0000000000
     30046      4360  TIP3      H2             50.7153047808       36.1066926766       12.7201701991  TIP3      4224            0.0000000000
     30047      4361  TIP3      OH2            52.4510789302       37.0129728642       12.8207940105  TIP3      4225            0.0000000000
     30048      4361  TIP3      H1             52.6351434935       37.9140534985       12.5126492058  TIP3      4225            0.0000000000
     30049      4361  TIP3      H2             52.7752604660       36.5162653190       12.0250273688  TIP3      4225            0.0000000000
     30050      4362  TIP3      OH2            40.3032813004       36.0144881681       10.3511062823  TIP3      4226            0.0000000000
     30051      4362  TIP3      H1             40.0637389530       35.4299803882       11.1065020839  TIP3      4226            0.0000000000
     30052      4362  TIP3      H2             41.1766982937       35.6306147617       10.0941391728  TIP3      4226            0.0000000000
     30053      4363  TIP3      OH2            42.4953811797       34.9373065432        9.1052629942  TIP3      4227            0.0000000000
     30054      4363  TIP3      H1             42.3294796425       34.0021969664        9.3490573896  TIP3      4227            0.0000000000
     30055      4363  TIP3      H2             43.3713309146       35.0610641477        9.5463796566  TIP3      4227            0.0000000000
     30056      4364  TIP3      OH2            44.6897972985       34.9845556114       10.5593642645  TIP3      4228            0.0000000000
     30057      4364  TIP3      H1             45.1148733542       34.1227216369       10.3614065467  TIP3      4228            0.0000000000
     30058      4364  TIP3      H2             44.8612292915       35.0640155646       11.5125861066  TIP3      4228            0.0000000000
     30059      4365  TIP3      OH2            47.7619648990       20.3402895334        8.8552834432  TIP3      4229            0.0000000000
     30060      4365  TIP3      H1             46.9590560652       19.9527827817        9.2747435984  TIP3      4229            0.0000000000
     30061      4365  TIP3      H2             48.1954016532       19.5508969098        8.5101228594  TIP3      4229            0.0000000000
     30062      4366  TIP3      OH2            53.6378333910       19.1901881794        9.2460156818  TIP3      4230            0.0000000000
     30063      4366  TIP3      H1             54.2183915093       19.7194040576        8.6504919268  TIP3      4230            0.0000000000
     30064      4366  TIP3      H2             52.7847542848       19.1605001340        8.7565005379  TIP3      4230            0.0000000000
     30065      4367  TIP3      OH2            55.3124187020       20.2639669704        7.3620758984  TIP3      4231            0.0000000000
     30066      4367  TIP3      H1             55.9686574922       19.6714439710        6.9264512901  TIP3      4231            0.0000000000
     30067      4367  TIP3      H2             55.8789766953       21.0447565573        7.5560612941  TIP3      4231            0.0000000000
     30068      4368  TIP3      OH2            40.9575771680       19.4457910819        7.0540359690  TIP3      4232            0.0000000000
     30069      4368  TIP3      H1             40.0284404928       19.4748985050        6.7645959472  TIP3      4232            0.0000000000
     30070      4368  TIP3      H2             41.2022267693       18.5006371446        6.8998796238  TIP3      4232            0.0000000000
     30071      4369  TIP3      OH2            39.3911448301       19.3893925517        2.7170273589  TIP3      4233            0.0000000000
     30072      4369  TIP3      H1             39.9780940973       19.9420506619        2.1461113817  TIP3      4233            0.0000000000
     30073      4369  TIP3      H2             38.9761672893       20.0560257917        3.2969799508  TIP3      4233            0.0000000000
     30074      4370  TIP3      OH2            45.0286941396       19.1540083117        6.8395628205  TIP3      4234            0.0000000000
     30075      4370  TIP3      H1             45.9313268914       19.1303797717        6.4934850315  TIP3      4234            0.0000000000
     30076      4370  TIP3      H2             45.1454122188       19.4701331430        7.7526188608  TIP3      4234            0.0000000000
     30077      4371  TIP3      OH2            51.0881140322       19.3576197449        8.0849163148  TIP3      4235            0.0000000000
     30078      4371  TIP3      H1             50.7687886856       19.5675730288        7.1988972633  TIP3      4235            0.0000000000
     30079      4371  TIP3      H2             50.4739269389       18.6360556228        8.3524296974  TIP3      4235            0.0000000000
     30080      4372  TIP3      OH2            52.2326538956       19.5523461122        3.7522454369  TIP3      4236            0.0000000000
     30081      4372  TIP3      H1             51.4627854399       19.9742433526        3.3458416367  TIP3      4236            0.0000000000
     30082      4372  TIP3      H2             51.8166535392       18.7866254813        4.2201870366  TIP3      4236            0.0000000000
     30083      4373  TIP3      OH2            39.3337728228       35.3723868410        3.6018312210  TIP3      4237            0.0000000000
     30084      4373  TIP3      H1             38.4455503145       35.4189294757        3.1955233374  TIP3      4237            0.0000000000
     30085      4373  TIP3      H2             39.6074133011       36.2894057212        3.3916008699  TIP3      4237            0.0000000000
     30086      4374  TIP3      OH2            41.1032507669       20.6834683099        1.1860900220  TIP3      4238            0.0000000000
     30087      4374  TIP3      H1             41.7877643143       20.0053830251        1.0420865499  TIP3      4238            0.0000000000
     30088      4374  TIP3      H2             41.5896284398       21.3655675236        1.6602472316  TIP3      4238            0.0000000000
     30089      4375  TIP3      OH2            45.9257925743       21.6954462654        3.8672104947  TIP3      4239            0.0000000000
     30090      4375  TIP3      H1             46.4092269131       21.1789118921        4.5343404502  TIP3      4239            0.0000000000
     30091      4375  TIP3      H2             46.2728128682       22.5871962974        4.0778791685  TIP3      4239            0.0000000000
     30092      4376  TIP3      OH2            48.4318913090       37.3778072491        1.8316056182  TIP3      4240            0.0000000000
     30093      4376  TIP3      H1             49.2315805765       37.6236056548        1.3397826694  TIP3      4240            0.0000000000
     30094      4376  TIP3      H2             48.4794784697       36.4057369343        1.6705763720  TIP3      4240            0.0000000000
     30095      4377  TIP3      OH2            54.7497856819       35.8668638493        4.9284502111  TIP3      4241            0.0000000000
     30096      4377  TIP3      H1             54.5320769713       35.1491369073        4.2876386224  TIP3      4241            0.0000000000
     30097      4377  TIP3      H2             54.4963057606       36.6282156413        4.3662699326  TIP3      4241            0.0000000000
     30098      4378  TIP3      OH2            40.4194179392       19.9026065279       16.0874513520  TIP3      4242            0.0000000000
     30099      4378  TIP3      H1             39.7023254989       19.2799732651       16.3315253591  TIP3      4242            0.0000000000
     30100      4378  TIP3      H2             41.1303636329       19.6134707263       16.6936031969  TIP3      4242            0.0000000000
     30101      4379  TIP3      OH2            42.3072171833       19.1780142823       18.1042933526  TIP3      4243            0.0000000000
     30102      4379  TIP3      H1             43.0430637556       19.6872807519       18.4810591860  TIP3      4243            0.0000000000
     30103      4379  TIP3      H2             42.7588710555       18.3288117795       17.8781234109  TIP3      4243            0.0000000000
     30104      4380  TIP3      OH2            41.3625861131       36.9237956357        1.0578462940  TIP3      4244            0.0000000000
     30105      4380  TIP3      H1             40.5547458002       37.1312770949        1.5651419569  TIP3      4244            0.0000000000
     30106      4380  TIP3      H2             41.4424319564       35.9668092263        1.1346902473  TIP3      4244            0.0000000000
     30107      4381  TIP3      OH2            51.2505830600       18.6640155131       18.7473709839  TIP3      4245            0.0000000000
     30108      4381  TIP3      H1             50.8123000423       17.8201800691       18.6470307026  TIP3      4245            0.0000000000
     30109      4381  TIP3      H2             52.1325247001       18.4584854527       18.3441929915  TIP3      4245            0.0000000000
     30110      4382  TIP3      OH2            54.3164102564       34.7363943812       16.4723480683  TIP3      4246            0.0000000000
     30111      4382  TIP3      H1             53.4820279105       34.5759647270       15.9756133006  TIP3      4246            0.0000000000
     30112      4382  TIP3      H2             54.2594835186       35.6967660066       16.5741633835  TIP3      4246            0.0000000000
     30113      4383  TIP3      OH2            59.6858061372       27.3346719736       11.8496796857  TIP3      4247            0.0000000000
     30114      4383  TIP3      H1             59.4221132103       26.6892999680       12.5331014685  TIP3      4247            0.0000000000
     30115      4383  TIP3      H2             60.4247721679       26.8541054677       11.4338191422  TIP3      4247            0.0000000000
     30116      4384  TIP3      OH2            60.6835220570       32.4978150899        9.7741616430  TIP3      4248            0.0000000000
     30117      4384  TIP3      H1             60.2920854843       31.7408951361        9.3197908145  TIP3      4248            0.0000000000
     30118      4384  TIP3      H2             61.6224331141       32.2166419953        9.8643001591  TIP3      4248            0.0000000000
     30119      4385  TIP3      OH2            57.4950781683       25.5843371142        5.6822670070  TIP3      4249            0.0000000000
     30120      4385  TIP3      H1             56.9203375821       26.3270442650        5.9414069818  TIP3      4249            0.0000000000
     30121      4385  TIP3      H2             57.1969675300       25.5042820638        4.7579710482  TIP3      4249            0.0000000000
     30122      4386  TIP3      OH2            57.5354371582       27.4941396865        8.3669761006  TIP3      4250            0.0000000000
     30123      4386  TIP3      H1             57.9280350378       26.6174395679        8.5993196019  TIP3      4250            0.0000000000
     30124      4386  TIP3      H2             58.0377859342       27.7125509888        7.5834725010  TIP3      4250            0.0000000000
     30125      4387  TIP3      OH2             0.0112668765       30.7932978910       11.5716818304  TIP3      4251            0.0000000000
     30126      4387  TIP3      H1              0.5139323917       30.0462413968       11.1882131272  TIP3      4251            0.0000000000
     30127      4387  TIP3      H2              0.2839839033       31.5486159531       11.0183579351  TIP3      4251            0.0000000000
     30128      4388  TIP3      OH2            62.0940954271       22.6329468208        8.0633011397  TIP3      4252            0.0000000000
     30129      4388  TIP3      H1             62.3495522054       23.4134098298        7.5191697974  TIP3      4252            0.0000000000
     30130      4388  TIP3      H2             61.6538870414       22.1023481684        7.3611155963  TIP3      4252            0.0000000000
     30131      4389  TIP3      OH2            59.1304497994       25.4529173264        9.2084462189  TIP3      4253            0.0000000000
     30132      4389  TIP3      H1             59.6287314063       24.7927300713        9.7346573903  TIP3      4253            0.0000000000
     30133      4389  TIP3      H2             59.2384232909       25.0622593735        8.3199889038  TIP3      4253            0.0000000000
     30134      4390  TIP3      OH2            64.0158647535       26.3643696340        7.7067630819  TIP3      4254            0.0000000000
     30135      4390  TIP3      H1             64.3231931323       25.8136711107        8.4328568761  TIP3      4254            0.0000000000
     30136      4390  TIP3      H2             63.5954641928       25.6841765095        7.1477641563  TIP3      4254            0.0000000000
     30137      4391  TIP3      OH2            60.9736161872       21.8170914434       12.5316205523  TIP3      4255            0.0000000000
     30138      4391  TIP3      H1             60.6416934525       22.2816208670       11.7391018568  TIP3      4255            0.0000000000
     30139      4391  TIP3      H2             60.2994689291       22.1058125453       13.1787132638  TIP3      4255            0.0000000000
     30140      4392  TIP3      OH2            63.5290806161       29.7825583005       12.1798369824  TIP3      4256            0.0000000000
     30141      4392  TIP3      H1             63.1596511906       30.5826586839       12.6178585614  TIP3      4256            0.0000000000
     30142      4392  TIP3      H2             64.4050664047       30.1176479681       11.8742161479  TIP3      4256            0.0000000000
     30143      4393  TIP3      OH2            60.7514417353       23.5533205988       10.2436961770  TIP3      4257            0.0000000000
     30144      4393  TIP3      H1             61.4765075668       23.9265558376       10.7935451500  TIP3      4257            0.0000000000
     30145      4393  TIP3      H2             61.2607498589       23.3451591779        9.4260539034  TIP3      4257            0.0000000000
     30146      4394  TIP3      OH2            61.9144763688       31.8756761780       13.0948001016  TIP3      4258            0.0000000000
     30147      4394  TIP3      H1             62.0978341652       32.8409363956       13.0369062116  TIP3      4258            0.0000000000
     30148      4394  TIP3      H2             61.1885173715       31.8660706227       13.7703146805  TIP3      4258            0.0000000000
     30149      4395  TIP3      OH2            57.9272173631       31.0652566492        4.4369276915  TIP3      4259            0.0000000000
     30150      4395  TIP3      H1             58.0539231279       31.4872388970        3.5682868301  TIP3      4259            0.0000000000
     30151      4395  TIP3      H2             57.9190551056       31.8257062564        5.0439811988  TIP3      4259            0.0000000000
     30152      4396  TIP3      OH2            64.6502806510       19.0955184934       10.0935937463  TIP3      4260            0.0000000000
     30153      4396  TIP3      H1             64.5020669366       18.4304802784       10.7754262560  TIP3      4260            0.0000000000
     30154      4396  TIP3      H2             63.8851314967       19.6817779213       10.2855735903  TIP3      4260            0.0000000000
     30155      4397  TIP3      OH2            62.5135246799       28.5501900207        7.3364999884  TIP3      4261            0.0000000000
     30156      4397  TIP3      H1             62.3293090049       28.3305721199        6.4064019318  TIP3      4261            0.0000000000
     30157      4397  TIP3      H2             63.1526387567       27.8262662659        7.5363440632  TIP3      4261            0.0000000000
     30158      4398  TIP3      OH2            63.5244022824       31.9393982094        9.5600182488  TIP3      4262            0.0000000000
     30159      4398  TIP3      H1             63.6065896495       31.9984581533        8.5911198627  TIP3      4262            0.0000000000
     30160      4398  TIP3      H2             64.3725465797       31.5614181555        9.8338531545  TIP3      4262            0.0000000000
     30161      4399  TIP3      OH2            62.5373122355       27.4199177928       11.0276984145  TIP3      4263            0.0000000000
     30162      4399  TIP3      H1             62.5009691678       27.6263003231       10.0743632348  TIP3      4263            0.0000000000
     30163      4399  TIP3      H2             63.0384667323       28.1826565446       11.3876144560  TIP3      4263            0.0000000000
     30164      4400  TIP3      OH2            63.5118878680       31.5859869700       15.2584565119  TIP3      4264            0.0000000000
     30165      4400  TIP3      H1             63.2821596355       32.3540698979       15.8323101457  TIP3      4264            0.0000000000
     30166      4400  TIP3      H2             62.8889420864       31.7280309304       14.5298320583  TIP3      4264            0.0000000000
     30167      4401  TIP3      OH2            60.2250889196       28.9717167945       14.4024318193  TIP3      4265            0.0000000000
     30168      4401  TIP3      H1             60.1399868872       29.5251926803       15.2024586973  TIP3      4265            0.0000000000
     30169      4401  TIP3      H2             59.5766979214       28.2666482006       14.5907048983  TIP3      4265            0.0000000000
     30170      4402  TIP3      OH2            62.0389792558       33.5869541418       16.2115168929  TIP3      4266            0.0000000000
     30171      4402  TIP3      H1             61.8148504614       34.0417368840       15.3843405226  TIP3      4266            0.0000000000
     30172      4402  TIP3      H2             61.1810279166       33.5325140433       16.6732035472  TIP3      4266            0.0000000000
     30173      4403  TIP3      OH2            61.4347778060       27.5702601911        4.4267212170  TIP3      4267            0.0000000000
     30174      4403  TIP3      H1             60.9297356034       28.3534667325        4.1113548512  TIP3      4267            0.0000000000
     30175      4403  TIP3      H2             60.8637544717       26.8336741145        4.1852920647  TIP3      4267            0.0000000000
     30176      4404  TIP3      OH2            57.7231175987       30.5245521736       13.3563666487  TIP3      4268            0.0000000000
     30177      4404  TIP3      H1             57.0182088275       30.4309001845       12.6887312459  TIP3      4268            0.0000000000
     30178      4404  TIP3      H2             57.9556558834       29.5841388057       13.4686872018  TIP3      4268            0.0000000000
     30179      4405  TIP3      OH2            57.6961741257       33.0937527942       10.1805262547  TIP3      4269            0.0000000000
     30180      4405  TIP3      H1             58.6219430769       33.3284951061       10.0200578015  TIP3      4269            0.0000000000
     30181      4405  TIP3      H2             57.6302291118       33.3333016414       11.1137063307  TIP3      4269            0.0000000000
     30182      4406  TIP3      OH2            60.4678001618       35.7316447238        6.7382379624  TIP3      4270            0.0000000000
     30183      4406  TIP3      H1             60.7425254209       35.4399212309        7.6437145641  TIP3      4270            0.0000000000
     30184      4406  TIP3      H2             59.8504835446       35.0064796869        6.4864510045  TIP3      4270            0.0000000000
     30185      4407  TIP3      OH2            59.8300912290       31.7775915691       14.6891972776  TIP3      4271            0.0000000000
     30186      4407  TIP3      H1             59.9874324703       31.3947819908       15.5797447688  TIP3      4271            0.0000000000
     30187      4407  TIP3      H2             58.9801019029       31.3839992329       14.4103296390  TIP3      4271            0.0000000000
     30188      4408  TIP3      OH2            62.3465163685       20.2841705977       10.8231078007  TIP3      4272            0.0000000000
     30189      4408  TIP3      H1             61.5069344935       20.1473887445       10.3377580268  TIP3      4272            0.0000000000
     30190      4408  TIP3      H2             62.0104203764       20.7444095871       11.6181241322  TIP3      4272            0.0000000000
     30191      4409  TIP3      OH2            62.5703041425       24.6713420514       11.9129608770  TIP3      4273            0.0000000000
     30192      4409  TIP3      H1             61.7924951954       24.8376558493       12.4845419690  TIP3      4273            0.0000000000
     30193      4409  TIP3      H2             62.7337569260       25.5564695776       11.5438473899  TIP3      4273            0.0000000000
     30194      4410  TIP3      OH2            62.2964788503       24.6681496961        6.3106606859  TIP3      4274            0.0000000000
     30195      4410  TIP3      H1             61.3190173027       24.7279111141        6.3027357781  TIP3      4274            0.0000000000
     30196      4410  TIP3      H2             62.5311389052       24.4614680092        5.3729410084  TIP3      4274            0.0000000000
     30197      4411  TIP3      OH2            60.0681150875       24.9870327159       13.1950585032  TIP3      4275            0.0000000000
     30198      4411  TIP3      H1             60.4662119117       25.5327134262       13.9018026970  TIP3      4275            0.0000000000
     30199      4411  TIP3      H2             59.8068559624       24.1782586531       13.6986100246  TIP3      4275            0.0000000000
     30200      4412  TIP3      OH2            63.4567106431       23.2548447923        0.7772785529  TIP3      4276            0.0000000000
     30201      4412  TIP3      H1             63.0684588930       22.8933539930        1.5964424868  TIP3      4276            0.0000000000
     30202      4412  TIP3      H2             62.8694038738       24.0044369092        0.5733166794  TIP3      4276            0.0000000000
     30203      4413  TIP3      OH2            56.9539743117       22.3463862658        7.7480311222  TIP3      4277            0.0000000000
     30204      4413  TIP3      H1             57.7619111310       22.2630065408        8.2741165700  TIP3      4277            0.0000000000
     30205      4413  TIP3      H2             57.2693761389       22.5647990202        6.8554624832  TIP3      4277            0.0000000000
     30206      4414  TIP3      OH2            57.8216652878       22.9440113986        2.6991932587  TIP3      4278            0.0000000000
     30207      4414  TIP3      H1             58.6319260199       23.2448184952        2.2615143069  TIP3      4278            0.0000000000
     30208      4414  TIP3      H2             57.3013127402       23.7721457390        2.7524448794  TIP3      4278            0.0000000000
     30209      4415  TIP3      OH2            64.6994229151       22.8188191680        8.0385350402  TIP3      4279            0.0000000000
     30210      4415  TIP3      H1             63.7678627386       22.6136644815        8.2709130510  TIP3      4279            0.0000000000
     30211      4415  TIP3      H2             65.1779238392       22.7420102591        8.8706699968  TIP3      4279            0.0000000000
     30212      4416  TIP3      OH2            59.4589070316       24.1559408032        6.7687559191  TIP3      4280            0.0000000000
     30213      4416  TIP3      H1             58.8026046294       24.7439673388        6.3107077526  TIP3      4280            0.0000000000
     30214      4416  TIP3      H2             59.3730350752       23.3551370219        6.2214714959  TIP3      4280            0.0000000000
     30215      4417  TIP3      OH2            63.2666945621       24.4244869853        3.8555192209  TIP3      4281            0.0000000000
     30216      4417  TIP3      H1             64.1280467082       24.8089329223        4.1000569527  TIP3      4281            0.0000000000
     30217      4417  TIP3      H2             62.9423713253       25.0316924051        3.1570835551  TIP3      4281            0.0000000000
     30218      4418  TIP3      OH2            62.0301992899       25.7004952926        1.7707548098  TIP3      4282            0.0000000000
     30219      4418  TIP3      H1             61.1928945932       25.6179828216        1.2591276124  TIP3      4282            0.0000000000
     30220      4418  TIP3      H2             62.6299016092       26.1968815072        1.1901212056  TIP3      4282            0.0000000000
     30221      4419  TIP3      OH2            60.2294380480       30.1246541616       17.0870541865  TIP3      4283            0.0000000000
     30222      4419  TIP3      H1             60.8764424159       30.1205693570       17.8366040479  TIP3      4283            0.0000000000
     30223      4419  TIP3      H2             59.3995588140       29.9310640023       17.5821969331  TIP3      4283            0.0000000000
     30224      4420  TIP3      OH2            61.0625373865       21.1786555119        5.8902006119  TIP3      4284            0.0000000000
     30225      4420  TIP3      H1             60.3640820782       20.6897804313        6.3838318197  TIP3      4284            0.0000000000
     30226      4420  TIP3      H2             61.6555000104       20.4612064426        5.6300771997  TIP3      4284            0.0000000000
     30227      4421  TIP3      OH2            65.0291839465       23.6827002123       12.5116849403  TIP3      4285            0.0000000000
     30228      4421  TIP3      H1             64.2062506562       24.1486136079       12.2711764526  TIP3      4285            0.0000000000
     30229      4421  TIP3      H2             65.6220828857       24.0276951271       11.8101090092  TIP3      4285            0.0000000000
     30230      4422  TIP3      OH2            65.2032914817       30.4174991619        3.6819073447  TIP3      4286            0.0000000000
     30231      4422  TIP3      H1             64.4714210984       30.0474892317        3.1531130936  TIP3      4286            0.0000000000
     30232      4422  TIP3      H2             64.7773234875       30.5559968725        4.5608687262  TIP3      4286            0.0000000000
     30233      4423  TIP3      OH2            60.7040407698       29.4710114953        9.2563758583  TIP3      4287            0.0000000000
     30234      4423  TIP3      H1             61.3907698779       29.3431320812        8.5631040214  TIP3      4287            0.0000000000
     30235      4423  TIP3      H2             59.9061098711       29.3853563019        8.7202589856  TIP3      4287            0.0000000000
     30236      4424  TIP3      OH2            57.7319856962       27.8432064790       14.5945548513  TIP3      4288            0.0000000000
     30237      4424  TIP3      H1             57.4111879477       27.3374799310       15.3642333647  TIP3      4288            0.0000000000
     30238      4424  TIP3      H2             57.0734485232       27.6046374326       13.9100421823  TIP3      4288            0.0000000000
     30239      4425  TIP3      OH2            64.2629604598       27.6072439506       16.7698702828  TIP3      4289            0.0000000000
     30240      4425  TIP3      H1             64.0269178892       26.8796789763       16.1740971935  TIP3      4289            0.0000000000
     30241      4425  TIP3      H2             65.2411415602       27.5638064279       16.7411733621  TIP3      4289            0.0000000000
     30242      4426  TIP3      OH2            63.0025457611       32.9731361070        7.0010206572  TIP3      4290            0.0000000000
     30243      4426  TIP3      H1             63.3607780699       33.7628361050        6.5427044120  TIP3      4290            0.0000000000
     30244      4426  TIP3      H2             62.0672431523       33.2034323767        7.0427904218  TIP3      4290            0.0000000000
     30245      4427  TIP3      OH2            58.8690095335       27.8115834605        1.1182210575  TIP3      4291            0.0000000000
     30246      4427  TIP3      H1             59.2573526114       28.2156986189        1.9152059837  TIP3      4291            0.0000000000
     30247      4427  TIP3      H2             57.9472685755       27.6735867420        1.4117688562  TIP3      4291            0.0000000000
     30248      4428  TIP3      OH2            64.3402857483       30.6448124359        6.2999132123  TIP3      4292            0.0000000000
     30249      4428  TIP3      H1             63.8041968070       31.4575332940        6.4448059594  TIP3      4292            0.0000000000
     30250      4428  TIP3      H2             64.0002864734       30.0640839766        6.9957899038  TIP3      4292            0.0000000000
     30251      4429  TIP3      OH2            64.9680337450       35.0037355062       13.0016491029  TIP3      4293            0.0000000000
     30252      4429  TIP3      H1             65.3191449467       35.9092956882       13.0312667092  TIP3      4293            0.0000000000
     30253      4429  TIP3      H2             65.5068844101       34.5189655096       13.6412900833  TIP3      4293            0.0000000000
     30254      4430  TIP3      OH2            63.1341242145       35.6326671939        5.9538387641  TIP3      4294            0.0000000000
     30255      4430  TIP3      H1             62.1916109588       35.8546497984        6.1153822534  TIP3      4294            0.0000000000
     30256      4430  TIP3      H2             63.5605343095       36.3673222541        6.4464306908  TIP3      4294            0.0000000000
     30257      4431  TIP3      OH2            59.5143043071       22.7670648091       14.7115829171  TIP3      4295            0.0000000000
     30258      4431  TIP3      H1             58.9577438153       23.0377755003       15.4655602188  TIP3      4295            0.0000000000
     30259      4431  TIP3      H2             59.6571885718       21.8371757895       14.9616056130  TIP3      4295            0.0000000000
     30260      4432  TIP3      OH2            58.9729991267       34.4107991769       12.5844271644  TIP3      4296            0.0000000000
     30261      4432  TIP3      H1             59.6163457025       33.7143103224       12.7844916733  TIP3      4296            0.0000000000
     30262      4432  TIP3      H2             59.2932751207       35.1376928740       13.1518796992  TIP3      4296            0.0000000000
     30263      4433  TIP3      OH2            63.5282890428       32.5867354762        2.9263835710  TIP3      4297            0.0000000000
     30264      4433  TIP3      H1             64.3985984783       32.2653988761        2.6542470006  TIP3      4297            0.0000000000
     30265      4433  TIP3      H2             63.6432303160       33.5701305506        2.9401059219  TIP3      4297            0.0000000000
     30266      4434  TIP3      OH2            59.9724449797       29.4782338803        3.2410779529  TIP3      4298            0.0000000000
     30267      4434  TIP3      H1             59.3143277711       29.9068075507        3.8184292743  TIP3      4298            0.0000000000
     30268      4434  TIP3      H2             60.3853690788       30.2660939993        2.8215873324  TIP3      4298            0.0000000000
     30269      4435  TIP3      OH2            65.8071660350       24.2026564521        4.8896669828  TIP3      4299            0.0000000000
     30270      4435  TIP3      H1             66.4254274844       23.4684757484        4.9617607120  TIP3      4299            0.0000000000
     30271      4435  TIP3      H2             65.0775476019       23.7934737433        5.3923598809  TIP3      4299            0.0000000000
     30272      4436  TIP3      OH2            63.5989395725       35.2515764283        3.1701762480  TIP3      4300            0.0000000000
     30273      4436  TIP3      H1             63.4531829590       36.0959632662        2.6953673269  TIP3      4300            0.0000000000
     30274      4436  TIP3      H2             63.4598705275       35.4815762310        4.1121360220  TIP3      4300            0.0000000000
     30275      4437  TIP3      OH2            62.1565993163       21.8808448863        2.8711237217  TIP3      4301            0.0000000000
     30276      4437  TIP3      H1             62.1691793436       22.6683547468        3.4551586233  TIP3      4301            0.0000000000
     30277      4437  TIP3      H2             62.3775543631       21.2061112013        3.5352158302  TIP3      4301            0.0000000000
     30278      4438  TIP3      OH2            60.4869649202       32.0361013591        2.0077207590  TIP3      4302            0.0000000000
     30279      4438  TIP3      H1             61.2072028992       32.5680029574        2.3944236679  TIP3      4302            0.0000000000
     30280      4438  TIP3      H2             60.9342924228       31.7045561808        1.2051435844  TIP3      4302            0.0000000000
     30281      4439  TIP3      OH2            59.2549885507       25.0839425144        0.8420333703  TIP3      4303            0.0000000000
     30282      4439  TIP3      H1             59.3047260285       26.0416723659        0.6876901642  TIP3      4303            0.0000000000
     30283      4439  TIP3      H2             58.4450223801       24.8922852245        0.3634902347  TIP3      4303            0.0000000000
     30284      4440  TIP3      OH2            59.8462658114       19.7156309955        9.9201108146  TIP3      4304            0.0000000000
     30285      4440  TIP3      H1             59.8193098300       19.6591515119        8.9389898672  TIP3      4304            0.0000000000
     30286      4440  TIP3      H2             59.5161701149       18.8176539827       10.1580017140  TIP3      4304            0.0000000000
     30287      4441  TIP3      OH2            58.6403652651       33.8520414090        5.9537436434  TIP3      4305            0.0000000000
     30288      4441  TIP3      H1             57.7028382449       34.0980439281        5.9319653186  TIP3      4305            0.0000000000
     30289      4441  TIP3      H2             58.8583344556       33.9585635509        5.0099648531  TIP3      4305            0.0000000000
     30290      4442  TIP3      OH2            57.9218335039       36.0040115690       16.8518237256  TIP3      4306            0.0000000000
     30291      4442  TIP3      H1             58.7839643683       35.5785476692       16.8773504648  TIP3      4306            0.0000000000
     30292      4442  TIP3      H2             57.3559292568       35.1996753715       16.7648630479  TIP3      4306            0.0000000000
     30293      4443  TIP3      OH2            57.6713860399       29.9934428572       17.8962716745  TIP3      4307            0.0000000000
     30294      4443  TIP3      H1             57.6228674146       29.0305941720       17.7566310869  TIP3      4307            0.0000000000
     30295      4443  TIP3      H2             57.2249329625       30.3498589798       17.1001446737  TIP3      4307            0.0000000000
     30296      4444  TIP3      OH2            61.7876511244       30.4593818429        0.0724330255  TIP3      4308            0.0000000000
     30297      4444  TIP3      H1             62.1221139937       30.0667908691        0.9029337532  TIP3      4308            0.0000000000
     30298      4444  TIP3      H2             62.5123450312       30.1971210104       -0.5215512464  TIP3      4308            0.0000000000
     30299      4445  TIP3      OH2            64.8034684484       30.5340313332       17.4245772841  TIP3      4309            0.0000000000
     30300      4445  TIP3      H1             64.4864430711       31.0774505820       16.6638048715  TIP3      4309            0.0000000000
     30301      4445  TIP3      H2             64.7202309362       29.6655531702       16.9825156609  TIP3      4309            0.0000000000
     30302      4446  TIP3      OH2            58.6378503660       27.3763795087       17.8194547185  TIP3      4310            0.0000000000
     30303      4446  TIP3      H1             59.4181673128       27.0741429861       17.3425419242  TIP3      4310            0.0000000000
     30304      4446  TIP3      H2             58.9923902662       27.6505486795       18.7016369751  TIP3      4310            0.0000000000
     30305      4447  TIP3      OH2            63.1992522814       29.0328823514        2.3584680863  TIP3      4311            0.0000000000
     30306      4447  TIP3      H1             62.9613137349       28.6308095645        3.2187086141  TIP3      4311            0.0000000000
     30307      4447  TIP3      H2             63.4760329264       28.2441877960        1.8434025480  TIP3      4311            0.0000000000
     30308      4448  TIP3      OH2            62.1057256023       26.5328702702       14.2974127090  TIP3      4312            0.0000000000
     30309      4448  TIP3      H1             62.0218532547       27.2590247795       14.9405151496  TIP3      4312            0.0000000000
     30310      4448  TIP3      H2             63.0518099409       26.6339616920       14.0442739541  TIP3      4312            0.0000000000
     30311      4449  TIP3      OH2            64.4601384899       26.9968771450        0.7473272762  TIP3      4313            0.0000000000
     30312      4449  TIP3      H1             64.7797205552       26.1921644793        0.3011758390  TIP3      4313            0.0000000000
     30313      4449  TIP3      H2             65.2737554616       27.5391970184        0.6643324900  TIP3      4313            0.0000000000
     30314      4450  TIP3      OH2            63.3115609538       24.3488254495       15.5739085685  TIP3      4314            0.0000000000
     30315      4450  TIP3      H1             63.6458449125       23.7066296155       14.9200634372  TIP3      4314            0.0000000000
     30316      4450  TIP3      H2             62.7291396208       24.9253724410       15.0351653055  TIP3      4314            0.0000000000
     30317      4451  TIP3      OH2            63.4180430558       21.7061444750       13.8525964610  TIP3      4315            0.0000000000
     30318      4451  TIP3      H1             63.7784984060       22.3430813353       13.2029943581  TIP3      4315            0.0000000000
     30319      4451  TIP3      H2             62.4759559447       21.6517094012       13.5940416765  TIP3      4315            0.0000000000
     30320      4452  TIP3      OH2            64.5724333887       27.5937507961       13.5513183440  TIP3      4316            0.0000000000
     30321      4452  TIP3      H1             65.0086628072       27.5199624151       12.6869770444  TIP3      4316            0.0000000000
     30322      4452  TIP3      H2             64.0829938015       28.4250627967       13.4316922365  TIP3      4316            0.0000000000
     30323      4453  TIP3      OH2            61.5099040395       24.8975901604       17.9471077496  TIP3      4317            0.0000000000
     30324      4453  TIP3      H1             60.7924172687       24.3086679347       18.2371037236  TIP3      4317            0.0000000000
     30325      4453  TIP3      H2             62.0420405201       24.3283855154       17.3675340525  TIP3      4317            0.0000000000
     30326      4454  TIP3      OH2            64.0759646291       19.0863309058       13.4268199962  TIP3      4318            0.0000000000
     30327      4454  TIP3      H1             63.9723133167       20.0396270781       13.6636945524  TIP3      4318            0.0000000000
     30328      4454  TIP3      H2             63.1625348307       18.7816032230       13.5684235207  TIP3      4318            0.0000000000
     30329      4455  TIP3      OH2            65.1573987637       24.0174139812       18.6445586599  TIP3      4319            0.0000000000
     30330      4455  TIP3      H1             64.9916764387       23.1142047074       18.9697433010  TIP3      4319            0.0000000000
     30331      4455  TIP3      H2             64.6045988767       24.0400880636       17.8432298991  TIP3      4319            0.0000000000
     30332      4456  TIP3      OH2            59.3807123506       22.5611032422       18.2080577515  TIP3      4320            0.0000000000
     30333      4456  TIP3      H1             59.2613784162       21.7660693139       17.6384700654  TIP3      4320            0.0000000000
     30334      4456  TIP3      H2             59.8789356817       22.2013359047       18.9746049628  TIP3      4320            0.0000000000
     30335      4457  TIP3      OH2            64.7126361081       18.5573985008       16.0609825847  TIP3      4321            0.0000000000
     30336      4457  TIP3      H1             65.4198431151       17.9129089428       16.2778974821  TIP3      4321            0.0000000000
     30337      4457  TIP3      H2             64.7556396606       18.6626273269       15.0857059054  TIP3      4321            0.0000000000
     30338      4458  TIP3      OH2            63.9702935486       37.4182283591        1.5136614009  TIP3      4322            0.0000000000
     30339      4458  TIP3      H1             64.6898083609       37.5619289168        2.1474873758  TIP3      4322            0.0000000000
     30340      4458  TIP3      H2             64.4130456421       37.6866257383        0.7022391857  TIP3      4322            0.0000000000
     30341      4459  TIP3      OH2            57.8538713086       31.4763993226        1.2449704500  TIP3      4323            0.0000000000
     30342      4459  TIP3      H1             58.7447161083       31.7422349749        1.5383159677  TIP3      4323            0.0000000000
     30343      4459  TIP3      H2             58.0264346393       31.3146103446        0.2928148797  TIP3      4323            0.0000000000
     30344      4460  TIP3      OH2            56.9266247944       36.9515412989        6.0930649931  TIP3      4324            0.0000000000
     30345      4460  TIP3      H1             56.1340381086       36.4923673004        5.7338853048  TIP3      4324            0.0000000000
     30346      4460  TIP3      H2             57.0043866678       36.5135244669        6.9668921418  TIP3      4324            0.0000000000
     30347      4461  TIP3      OH2            57.5615238147       35.6070109027        8.3357225391  TIP3      4325            0.0000000000
     30348      4461  TIP3      H1             57.3398846098       34.7054873765        8.6448423776  TIP3      4325            0.0000000000
     30349      4461  TIP3      H2             58.2325798312       35.9142942655        8.9791934858  TIP3      4325            0.0000000000
     30350      4462  TIP3      OH2            57.7931941139       28.7890105184       10.7350589530  TIP3      4326            0.0000000000
     30351      4462  TIP3      H1             57.6364892514       28.3003392153        9.8905511223  TIP3      4326            0.0000000000
     30352      4462  TIP3      H2             58.5658702775       28.2870626897       11.0822985701  TIP3      4326            0.0000000000
     30353      4463  TIP3      OH2            57.4402247415       23.6826477261       16.7276233125  TIP3      4327            0.0000000000
     30354      4463  TIP3      H1             58.1265346258       23.3835173877       17.3680932676  TIP3      4327            0.0000000000
     30355      4463  TIP3      H2             56.7813946574       22.9617222326       16.8325357484  TIP3      4327            0.0000000000
     30356      4464  TIP3      OH2            58.5215108007       22.0354798241       10.4112897616  TIP3      4328            0.0000000000
     30357      4464  TIP3      H1             58.8569077770       21.1094957340       10.3566581024  TIP3      4328            0.0000000000
     30358      4464  TIP3      H2             59.3145090628       22.5565524289       10.1798821483  TIP3      4328            0.0000000000
     30359      4465  TIP3      OH2            57.0184667571       25.0672024608       10.9643722319  TIP3      4329            0.0000000000
     30360      4465  TIP3      H1             57.4752353886       24.4620958818       10.3669872955  TIP3      4329            0.0000000000
     30361      4465  TIP3      H2             57.7116665973       25.7099121708       11.1612935789  TIP3      4329            0.0000000000
     30362      4466  TIP3      OH2            57.0738364405       21.6924134398        4.9793891838  TIP3      4330            0.0000000000
     30363      4466  TIP3      H1             56.1089032570       21.7217431128        5.0923354350  TIP3      4330            0.0000000000
     30364      4466  TIP3      H2             57.1644325799       22.1235100464        4.1105445463  TIP3      4330            0.0000000000
     30365      4467  TIP3      OH2            56.9913221670       19.9484374216       13.1865228187  TIP3      4331            0.0000000000
     30366      4467  TIP3      H1             56.3412124023       19.4742808204       13.7284281147  TIP3      4331            0.0000000000
     30367      4467  TIP3      H2             56.5118699038       20.7248089985       12.8681088943  TIP3      4331            0.0000000000
     30368      4468  TIP3      OH2            59.5334316904       33.3271536574       17.4522554745  TIP3      4332            0.0000000000
     30369      4468  TIP3      H1             58.7714971230       33.1931750276       16.8570192201  TIP3      4332            0.0000000000
     30370      4468  TIP3      H2             59.4553044821       32.5916184857       18.0803563400  TIP3      4332            0.0000000000
     30371      4469  TIP3      OH2            62.3579691461       34.5249126428       13.6294372444  TIP3      4333            0.0000000000
     30372      4469  TIP3      H1             62.1980944301       35.4701047816       13.3941410970  TIP3      4333            0.0000000000
     30373      4469  TIP3      H2             63.3380928939       34.5091355737       13.5394633857  TIP3      4333            0.0000000000
     30374      4470  TIP3      OH2            59.5796509870       37.6671037003       13.6010059128  TIP3      4334            0.0000000000
     30375      4470  TIP3      H1             58.8223572938       38.2049160785       13.3003715721  TIP3      4334            0.0000000000
     30376      4470  TIP3      H2             59.5566975773       37.8782298086       14.5494409953  TIP3      4334            0.0000000000
     30377      4471  TIP3      OH2            61.8069139725       36.8599428212       12.5000381285  TIP3      4335            0.0000000000
     30378      4471  TIP3      H1             60.9165350005       37.1309604855       12.8346105097  TIP3      4335            0.0000000000
     30379      4471  TIP3      H2             61.9217931203       37.4681543373       11.7525550167  TIP3      4335            0.0000000000
     30380      4472  TIP3      OH2            59.2030205435       36.0732912283       10.4579943937  TIP3      4336            0.0000000000
     30381      4472  TIP3      H1             58.9068892889       35.4609330876       11.1609638065  TIP3      4336            0.0000000000
     30382      4472  TIP3      H2             60.1214618615       35.7597411777       10.2853384649  TIP3      4336            0.0000000000
     30383      4473  TIP3      OH2            61.3592300593       35.0087583277        9.1274712845  TIP3      4337            0.0000000000
     30384      4473  TIP3      H1             61.1556291789       34.1089866396        9.4450234284  TIP3      4337            0.0000000000
     30385      4473  TIP3      H2             62.2635957612       35.1193882404        9.5004244154  TIP3      4337            0.0000000000
     30386      4474  TIP3      OH2            63.7367270453       35.0330585882       10.3591763712  TIP3      4338            0.0000000000
     30387      4474  TIP3      H1             64.4894578363       34.5149994517       10.0292502420  TIP3      4338            0.0000000000
     30388      4474  TIP3      H2             63.8001192516       34.9290767289       11.3257797797  TIP3      4338            0.0000000000
     30389      4475  TIP3      OH2            59.3801867818       19.4639786795        7.2495469815  TIP3      4339            0.0000000000
     30390      4475  TIP3      H1             58.4977878469       19.3523660620        6.8473088490  TIP3      4339            0.0000000000
     30391      4475  TIP3      H2             59.8589576182       18.6690811882        6.9217615715  TIP3      4339            0.0000000000
     30392      4476  TIP3      OH2            58.1368714911       19.2357879294        2.7553482569  TIP3      4340            0.0000000000
     30393      4476  TIP3      H1             58.6769082826       19.8880641294        2.2439979024  TIP3      4340            0.0000000000
     30394      4476  TIP3      H2             57.6978727880       19.7864865175        3.4224390464  TIP3      4340            0.0000000000
     30395      4477  TIP3      OH2            63.9521313060       19.1016222915        7.2860305339  TIP3      4341            0.0000000000
     30396      4477  TIP3      H1             64.3698590428       19.9072822240        6.9466995513  TIP3      4341            0.0000000000
     30397      4477  TIP3      H2             64.2747708478       19.0652027670        8.2131978944  TIP3      4341            0.0000000000
     30398      4478  TIP3      OH2            58.1336315423       35.1897019035        3.4571008838  TIP3      4342            0.0000000000
     30399      4478  TIP3      H1             57.2441946376       35.3435814226        3.0592954280  TIP3      4342            0.0000000000
     30400      4478  TIP3      H2             58.3682720149       36.1120899772        3.6245673906  TIP3      4342            0.0000000000
     30401      4479  TIP3      OH2            59.9147992179       20.5928131952        1.3740432508  TIP3      4343            0.0000000000
     30402      4479  TIP3      H1             60.7308208526       20.1077580082        1.1638281079  TIP3      4343            0.0000000000
     30403      4479  TIP3      H2             60.2427093878       21.4890759535        1.5036127796  TIP3      4343            0.0000000000
     30404      4480  TIP3      OH2            64.3985319678       21.3182278576        4.5368826057  TIP3      4344            0.0000000000
     30405      4480  TIP3      H1             65.3297258009       21.0523945426        4.7119853893  TIP3      4344            0.0000000000
     30406      4480  TIP3      H2             64.4414474423       21.6474931139        3.6326102726  TIP3      4344            0.0000000000
     30407      4481  TIP3      OH2            59.2785252483       20.1455287605       16.8380561016  TIP3      4345            0.0000000000
     30408      4481  TIP3      H1             58.9718664754       19.2588278684       16.5801578410  TIP3      4345            0.0000000000
     30409      4481  TIP3      H2             60.1353753516       19.9236182638       17.2801448648  TIP3      4345            0.0000000000
     30410      4482  TIP3      OH2            61.4871545324       19.3112314295       18.2473977405  TIP3      4346            0.0000000000
     30411      4482  TIP3      H1             62.4028627395       19.2055147783       17.9371294320  TIP3      4346            0.0000000000
     30412      4482  TIP3      H2             61.3484539532       18.4240058191       18.6287623098  TIP3      4346            0.0000000000
     30413      4483  TIP3      OH2            60.1844518029       36.6583632610        0.9114656238  TIP3      4347            0.0000000000
     30414      4483  TIP3      H1             59.5957422570       36.6631352972        1.6892154701  TIP3      4347            0.0000000000
     30415      4483  TIP3      H2             60.6788846606       35.8315286699        1.0244278815  TIP3      4347            0.0000000000
     30416      4484  TIP3      OH2            12.2577644563       47.7222022880        6.8143233103  TIP3      4348            0.0000000000
     30417      4484  TIP3      H1             12.0155758404       48.6739779753        6.7023450564  TIP3      4348            0.0000000000
     30418      4484  TIP3      H2             11.4617099306       47.3058726763        6.4532610180  TIP3      4348            0.0000000000
     30419      4485  TIP3      OH2            11.0995186444       46.3903466571       10.0101704754  TIP3      4349            0.0000000000
     30420      4485  TIP3      H1             11.0451495760       46.1072781054       10.9455974552  TIP3      4349            0.0000000000
     30421      4485  TIP3      H2             10.2828201884       46.0199289187        9.6209559449  TIP3      4349            0.0000000000
     30422      4486  TIP3      OH2             3.4997141375       46.4796946120       11.7403212498  TIP3      4350            0.0000000000
     30423      4486  TIP3      H1              3.4472774694       45.6945972733       12.3307745924  TIP3      4350            0.0000000000
     30424      4486  TIP3      H2              4.1122928246       47.0606490052       12.2210686143  TIP3      4350            0.0000000000
     30425      4487  TIP3      OH2            14.2959847855       49.5955344747        8.8418280470  TIP3      4351            0.0000000000
     30426      4487  TIP3      H1             14.0751834540       48.9159925957        9.4987259644  TIP3      4351            0.0000000000
     30427      4487  TIP3      H2             14.4809276982       50.3527887334        9.4242762079  TIP3      4351            0.0000000000
     30428      4488  TIP3      OH2             3.9712151054       51.3176928477        9.8885190917  TIP3      4352            0.0000000000
     30429      4488  TIP3      H1              3.6093455407       50.4733081910        9.5432063627  TIP3      4352            0.0000000000
     30430      4488  TIP3      H2              4.8543489659       50.9850452596       10.1176210714  TIP3      4352            0.0000000000
     30431      4489  TIP3      OH2             1.3997834105       45.2553581659        5.6597195984  TIP3      4353            0.0000000000
     30432      4489  TIP3      H1              0.9266163801       46.0969871098        5.6354159761  TIP3      4353            0.0000000000
     30433      4489  TIP3      H2              0.7126070049       44.6549903885        5.3175202494  TIP3      4353            0.0000000000
     30434      4490  TIP3      OH2             1.5811373182       46.6397678015        8.3063900597  TIP3      4354            0.0000000000
     30435      4490  TIP3      H1              1.7596640090       45.6740750792        8.3805744217  TIP3      4354            0.0000000000
     30436      4490  TIP3      H2              2.0598764155       46.8674664688        7.5026258754  TIP3      4354            0.0000000000
     30437      4491  TIP3      OH2            11.8454663440       55.0364694061        8.7248222684  TIP3      4355            0.0000000000
     30438      4491  TIP3      H1             12.4489490870       54.4508278083        8.2021288696  TIP3      4355            0.0000000000
     30439      4491  TIP3      H2             11.6134810189       54.4321353180        9.4415836554  TIP3      4355            0.0000000000
     30440      4492  TIP3      OH2             9.1696566362       49.1693413705       11.3674523087  TIP3      4356            0.0000000000
     30441      4492  TIP3      H1              9.4352546172       49.1839821249       10.4416397446  TIP3      4356            0.0000000000
     30442      4492  TIP3      H2             10.0148015465       49.4334804611       11.8000261647  TIP3      4356            0.0000000000
     30443      4493  TIP3      OH2            17.6920239459       40.6662410614       11.2216480852  TIP3      4357            0.0000000000
     30444      4493  TIP3      H1             17.7283948662       41.2248933337       12.0311898949  TIP3      4357            0.0000000000
     30445      4493  TIP3      H2             18.5867973513       40.8148490517       10.8732708867  TIP3      4357            0.0000000000
     30446      4494  TIP3      OH2            12.9359493707       43.8175647390       11.2885192093  TIP3      4358            0.0000000000
     30447      4494  TIP3      H1             12.9896689506       42.8960730449       11.5959756016  TIP3      4358            0.0000000000
     30448      4494  TIP3      H2             12.9709436178       43.6484304406       10.3269168534  TIP3      4358            0.0000000000
     30449      4495  TIP3      OH2             5.4989173141       41.6451113542        8.1515935356  TIP3      4359            0.0000000000
     30450      4495  TIP3      H1              5.8472570967       42.3289426843        7.5491508306  TIP3      4359            0.0000000000
     30451      4495  TIP3      H2              5.3336072786       40.9245653313        7.5045134496  TIP3      4359            0.0000000000
     30452      4496  TIP3      OH2            13.1701230157       41.8944611415        6.6593664591  TIP3      4360            0.0000000000
     30453      4496  TIP3      H1             13.6688996192       41.5708146974        7.4471764214  TIP3      4360            0.0000000000
     30454      4496  TIP3      H2             13.6107481591       42.7441562933        6.5329170306  TIP3      4360            0.0000000000
     30455      4497  TIP3      OH2             2.3657953384       44.0644495124        8.8007741293  TIP3      4361            0.0000000000
     30456      4497  TIP3      H1              3.1208633919       43.6907390250        9.2915184682  TIP3      4361            0.0000000000
     30457      4497  TIP3      H2              2.5077849414       43.6906846647        7.9169892953  TIP3      4361            0.0000000000
     30458      4498  TIP3      OH2             6.8910708995       45.4372524127        8.1747345176  TIP3      4362            0.0000000000
     30459      4498  TIP3      H1              7.7627538006       45.0272580015        8.3348701808  TIP3      4362            0.0000000000
     30460      4498  TIP3      H2              6.4796367193       44.8211882535        7.5297330696  TIP3      4362            0.0000000000
     30461      4499  TIP3      OH2            17.8478704646       41.8994122733       13.5547613327  TIP3      4363            0.0000000000
     30462      4499  TIP3      H1             17.5683348418       42.8319666975       13.3537036152  TIP3      4363            0.0000000000
     30463      4499  TIP3      H2             18.2911929782       42.0255213498       14.4063539465  TIP3      4363            0.0000000000
     30464      4500  TIP3      OH2             4.4866807075       40.6089953526       12.3270466732  TIP3      4364            0.0000000000
     30465      4500  TIP3      H1              4.0806919723       41.1779408799       11.6487685163  TIP3      4364            0.0000000000
     30466      4500  TIP3      H2              3.9077795385       40.8264166796       13.0918825424  TIP3      4364            0.0000000000
     30467      4501  TIP3      OH2            11.2952520682       49.9140699304        5.8060456518  TIP3      4365            0.0000000000
     30468      4501  TIP3      H1             11.2645030609       50.0495666320        4.8449011015  TIP3      4365            0.0000000000
     30469      4501  TIP3      H2             11.0144046325       50.7984380889        6.1418151507  TIP3      4365            0.0000000000
     30470      4502  TIP3      OH2             6.7193925090       48.3077137143       11.9629770759  TIP3      4366            0.0000000000
     30471      4502  TIP3      H1              6.1799191447       49.0643481490       12.2947956769  TIP3      4366            0.0000000000
     30472      4502  TIP3      H2              7.5775235719       48.7630461817       11.7947953998  TIP3      4366            0.0000000000
     30473      4503  TIP3      OH2            15.0511922524       41.4947737502        8.5980530462  TIP3      4367            0.0000000000
     30474      4503  TIP3      H1             15.0375145966       40.8318375359        9.3029992949  TIP3      4367            0.0000000000
     30475      4503  TIP3      H2             15.8901276877       41.9283226357        8.7995737868  TIP3      4367            0.0000000000
     30476      4504  TIP3      OH2             4.2898575047       42.6796352451       10.2747075871  TIP3      4368            0.0000000000
     30477      4504  TIP3      H1              4.8582234347       43.3453408521       10.7289751987  TIP3      4368            0.0000000000
     30478      4504  TIP3      H2              4.8800202678       42.3453884664        9.5468562134  TIP3      4368            0.0000000000
     30479      4505  TIP3      OH2             5.6493459085       50.5402138394       13.0107553739  TIP3      4369            0.0000000000
     30480      4505  TIP3      H1              5.5285509816       51.3812200210       12.5512766864  TIP3      4369            0.0000000000
     30481      4505  TIP3      H2              4.7908811456       50.4791574039       13.4924344680  TIP3      4369            0.0000000000
     30482      4506  TIP3      OH2             1.4701611748       49.6743468825        4.2561180769  TIP3      4370            0.0000000000
     30483      4506  TIP3      H1              0.5280394979       49.4493225116        4.0452158453  TIP3      4370            0.0000000000
     30484      4506  TIP3      H2              1.3833847986       50.2490629858        5.0275098899  TIP3      4370            0.0000000000
     30485      4507  TIP3      OH2            15.0762859992       51.5581141777       10.6456759898  TIP3      4371            0.0000000000
     30486      4507  TIP3      H1             14.2013576612       51.8619072238       10.9803790700  TIP3      4371            0.0000000000
     30487      4507  TIP3      H2             15.3390432459       52.3633264648       10.1689103732  TIP3      4371            0.0000000000
     30488      4508  TIP3      OH2            14.8499482274       40.3055583461       12.0893170550  TIP3      4372            0.0000000000
     30489      4508  TIP3      H1             14.1704376563       40.6837849682       11.4942204409  TIP3      4372            0.0000000000
     30490      4508  TIP3      H2             15.6758954300       40.5688657422       11.6467133192  TIP3      4372            0.0000000000
     30491      4509  TIP3      OH2             7.8671100791       37.8562682976        9.9130569303  TIP3      4373            0.0000000000
     30492      4509  TIP3      H1              7.3594726084       37.0686861049       10.1609357994  TIP3      4373            0.0000000000
     30493      4509  TIP3      H2              7.1413266204       38.5229706797       10.0402889700  TIP3      4373            0.0000000000
     30494      4510  TIP3      OH2            13.5993109372       53.5456557579        7.2274426763  TIP3      4374            0.0000000000
     30495      4510  TIP3      H1             13.7387715064       52.6658705164        6.7999892067  TIP3      4374            0.0000000000
     30496      4510  TIP3      H2             14.4463980769       54.0174954182        7.0656207171  TIP3      4374            0.0000000000
     30497      4511  TIP3      OH2            14.0868020451       51.1530779489        6.0000123946  TIP3      4375            0.0000000000
     30498      4511  TIP3      H1             14.2357418042       50.5359383461        5.2696742237  TIP3      4375            0.0000000000
     30499      4511  TIP3      H2             14.1466070440       50.5760352423        6.7807406883  TIP3      4375            0.0000000000
     30500      4512  TIP3      OH2            16.1192286098       50.0334895830       14.9227744440  TIP3      4376            0.0000000000
     30501      4512  TIP3      H1             16.4174000034       49.4335258022       14.1955537170  TIP3      4376            0.0000000000
     30502      4512  TIP3      H2             16.1384809106       50.8904208604       14.4643501225  TIP3      4376            0.0000000000
     30503      4513  TIP3      OH2            10.5582299538       46.7389437438        4.0426285435  TIP3      4377            0.0000000000
     30504      4513  TIP3      H1              9.9687120621       47.5176392193        3.8949691346  TIP3      4377            0.0000000000
     30505      4513  TIP3      H2             11.4293395468       47.0916774264        3.7580763751  TIP3      4377            0.0000000000
     30506      4514  TIP3      OH2            10.5326253108       45.9482765202        1.3515894953  TIP3      4378            0.0000000000
     30507      4514  TIP3      H1             10.9610223628       45.9419798106        2.2282641343  TIP3      4378            0.0000000000
     30508      4514  TIP3      H2             10.9681764845       45.2116899116        0.9057316691  TIP3      4378            0.0000000000
     30509      4515  TIP3      OH2            18.1177396508       46.5038062678       12.7922242414  TIP3      4379            0.0000000000
     30510      4515  TIP3      H1             17.3821226316       47.1568195079       12.8198528696  TIP3      4379            0.0000000000
     30511      4515  TIP3      H2             18.6637244380       46.8786119219       12.0637494663  TIP3      4379            0.0000000000
     30512      4516  TIP3      OH2            14.6301974204       47.2622425490        5.5278321097  TIP3      4380            0.0000000000
     30513      4516  TIP3      H1             13.8282094109       47.4200387826        6.0879760724  TIP3      4380            0.0000000000
     30514      4516  TIP3      H2             15.1014859475       46.5689176785        6.0401847291  TIP3      4380            0.0000000000
     30515      4517  TIP3      OH2            14.4487666473       45.4762069471       14.1301687011  TIP3      4381            0.0000000000
     30516      4517  TIP3      H1             14.1571620416       46.2064993322       14.6942967620  TIP3      4381            0.0000000000
     30517      4517  TIP3      H2             13.7838281385       45.5339736727       13.4253860958  TIP3      4381            0.0000000000
     30518      4518  TIP3      OH2             5.8423751010       47.6128313569        7.2249023098  TIP3      4382            0.0000000000
     30519      4518  TIP3      H1              5.4918598945       47.3810537485        6.3407888689  TIP3      4382            0.0000000000
     30520      4518  TIP3      H2              6.2911485717       46.7805951700        7.4855331743  TIP3      4382            0.0000000000
     30521      4519  TIP3      OH2             7.1077224279       50.8661539676        9.8033457196  TIP3      4383            0.0000000000
     30522      4519  TIP3      H1              6.9138819068       50.7886850396        8.8431056682  TIP3      4383            0.0000000000
     30523      4519  TIP3      H2              7.4671240674       50.0001563638       10.0603528725  TIP3      4383            0.0000000000
     30524      4520  TIP3      OH2             6.1417763431       46.0913974707       10.6403591446  TIP3      4384            0.0000000000
     30525      4520  TIP3      H1              6.4727362607       46.1790001754        9.7212661000  TIP3      4384            0.0000000000
     30526      4520  TIP3      H2              6.4437168851       46.9135610180       11.0923326836  TIP3      4384            0.0000000000
     30527      4521  TIP3      OH2            12.6806767503       52.0196905546       11.6349051633  TIP3      4385            0.0000000000
     30528      4521  TIP3      H1             12.3189512114       52.6717209235       12.2614621043  TIP3      4385            0.0000000000
     30529      4521  TIP3      H2             12.3255401118       51.1635754410       11.9411007603  TIP3      4385            0.0000000000
     30530      4522  TIP3      OH2             7.0648141986       50.8608043145       15.3714017345  TIP3      4386            0.0000000000
     30531      4522  TIP3      H1              6.3078050731       51.3527413942       15.7711008336  TIP3      4386            0.0000000000
     30532      4522  TIP3      H2              6.7059694620       50.7101110459       14.4716492306  TIP3      4386            0.0000000000
     30533      4523  TIP3      OH2            13.0942018261       46.6701523201        3.2158578721  TIP3      4387            0.0000000000
     30534      4523  TIP3      H1             13.7795608010       46.9017665306        3.8779121425  TIP3      4387            0.0000000000
     30535      4523  TIP3      H2             13.4418206932       47.0811517854        2.3891232743  TIP3      4387            0.0000000000
     30536      4524  TIP3      OH2             4.2953281451       47.2443415675       14.2822144662  TIP3      4388            0.0000000000
     30537      4524  TIP3      H1              3.9593274311       48.1482704000       14.4028031931  TIP3      4388            0.0000000000
     30538      4524  TIP3      H2              3.4620842702       46.7337352003       14.3721709363  TIP3      4388            0.0000000000
     30539      4525  TIP3      OH2            10.6536236867       52.3487714165        6.6631360523  TIP3      4389            0.0000000000
     30540      4525  TIP3      H1             10.9345425623       53.0260805651        7.2815477721  TIP3      4389            0.0000000000
     30541      4525  TIP3      H2             10.2760571983       52.8558140055        5.9339994381  TIP3      4389            0.0000000000
     30542      4526  TIP3      OH2             5.1941386419       52.4242075481       16.3799627170  TIP3      4390            0.0000000000
     30543      4526  TIP3      H1              5.0787850855       52.7558433821       15.4649229406  TIP3      4390            0.0000000000
     30544      4526  TIP3      H2              4.2705162059       52.4961652824       16.6870032031  TIP3      4390            0.0000000000
     30545      4527  TIP3      OH2            16.9319821661       37.8103130950        3.3908051266  TIP3      4391            0.0000000000
     30546      4527  TIP3      H1             16.0101973889       38.0935954241        3.5746121664  TIP3      4391            0.0000000000
     30547      4527  TIP3      H2             17.2739725261       38.5828388112        2.9063960679  TIP3      4391            0.0000000000
     30548      4528  TIP3      OH2             4.6085835711       46.5532513752        4.8125505485  TIP3      4392            0.0000000000
     30549      4528  TIP3      H1              3.9689514466       47.1317419708        4.3518542247  TIP3      4392            0.0000000000
     30550      4528  TIP3      H2              4.2347254285       45.6650717759        4.7369569920  TIP3      4392            0.0000000000
     30551      4529  TIP3      OH2            17.8003441622       52.2851446476        1.4570130041  TIP3      4393            0.0000000000
     30552      4529  TIP3      H1             18.0959790433       53.2179142148        1.5238575059  TIP3      4393            0.0000000000
     30553      4529  TIP3      H2             18.6702706456       51.8496064002        1.3097544322  TIP3      4393            0.0000000000
     30554      4530  TIP3      OH2             1.5518597188       48.9543147165       13.9439393830  TIP3      4394            0.0000000000
     30555      4530  TIP3      H1              0.9720090876       49.0378043581       13.1610413499  TIP3      4394            0.0000000000
     30556      4530  TIP3      H2              1.5431924958       47.9818988204       14.0574544931  TIP3      4394            0.0000000000
     30557      4531  TIP3      OH2             0.5898379034       52.2263355727       10.2527635677  TIP3      4395            0.0000000000
     30558      4531  TIP3      H1              1.5617725110       52.2177891569       10.3395429826  TIP3      4395            0.0000000000
     30559      4531  TIP3      H2              0.3094697682       52.4292781784       11.1680323992  TIP3      4395            0.0000000000
     30560      4532  TIP3      OH2            19.2060449762       52.3684842283       16.4058983165  TIP3      4396            0.0000000000
     30561      4532  TIP3      H1             19.2308730739       51.4395384309       16.6789240431  TIP3      4396            0.0000000000
     30562      4532  TIP3      H2             18.2324401414       52.5198657070       16.5202894937  TIP3      4396            0.0000000000
     30563      4533  TIP3      OH2             9.5968330249       52.0120852497       15.1407357349  TIP3      4397            0.0000000000
     30564      4533  TIP3      H1              9.6932843180       52.5477236040       15.9429368144  TIP3      4397            0.0000000000
     30565      4533  TIP3      H2              8.6702092945       51.7084792734       15.1897244856  TIP3      4397            0.0000000000
     30566      4534  TIP3      OH2            10.0146157110       55.6983761577        4.6111906322  TIP3      4398            0.0000000000
     30567      4534  TIP3      H1             10.1279536728       55.8933553238        3.6589215938  TIP3      4398            0.0000000000
     30568      4534  TIP3      H2             10.0529599838       56.6065703626        4.9918526614  TIP3      4398            0.0000000000
     30569      4535  TIP3      OH2             4.3005242235       54.2623586190        6.7368868242  TIP3      4399            0.0000000000
     30570      4535  TIP3      H1              4.4913908376       54.0208653279        7.6740059138  TIP3      4399            0.0000000000
     30571      4535  TIP3      H2              3.7357302538       53.5049593451        6.4736876004  TIP3      4399            0.0000000000
     30572      4536  TIP3      OH2            13.4775042395       55.0101483657        1.5902846317  TIP3      4400            0.0000000000
     30573      4536  TIP3      H1             13.9149762150       54.2603538709        1.1396683446  TIP3      4400            0.0000000000
     30574      4536  TIP3      H2             13.5686839149       54.7668469082        2.5238205487  TIP3      4400            0.0000000000
     30575      4537  TIP3      OH2            12.6401209850       54.9429328530        4.6323642892  TIP3      4401            0.0000000000
     30576      4537  TIP3      H1             11.6860752849       55.1416648412        4.7219512979  TIP3      4401            0.0000000000
     30577      4537  TIP3      H2             12.7497434588       54.1188730916        5.1242010415  TIP3      4401            0.0000000000
     30578      4538  TIP3      OH2            15.6226842674       44.0889810708       16.4927873571  TIP3      4402            0.0000000000
     30579      4538  TIP3      H1             15.1604075340       44.5128779477       15.7481486608  TIP3      4402            0.0000000000
     30580      4538  TIP3      H2             15.6185083484       43.1533615221       16.2238870311  TIP3      4402            0.0000000000
     30581      4539  TIP3      OH2             3.5017728380       50.6361114205       14.5928596182  TIP3      4403            0.0000000000
     30582      4539  TIP3      H1              3.6790390350       50.3979594974       15.5263015251  TIP3      4403            0.0000000000
     30583      4539  TIP3      H2              2.6309935677       50.1903882684       14.4242201227  TIP3      4403            0.0000000000
     30584      4540  TIP3      OH2             5.7558249534       39.2715618281       10.4765652603  TIP3      4404            0.0000000000
     30585      4540  TIP3      H1              4.9368494528       39.1436091820        9.9574469908  TIP3      4404            0.0000000000
     30586      4540  TIP3      H2              5.3798132215       39.7438417860       11.2481223345  TIP3      4404            0.0000000000
     30587      4541  TIP3      OH2            10.6963544746       38.5385331365       13.8053202649  TIP3      4405            0.0000000000
     30588      4541  TIP3      H1             10.7462464760       38.0915725945       14.6617979550  TIP3      4405            0.0000000000
     30589      4541  TIP3      H2              9.7120804066       38.6058573156       13.6828879928  TIP3      4405            0.0000000000
     30590      4542  TIP3      OH2            13.3235553828       42.5256402630       14.8904000482  TIP3      4406            0.0000000000
     30591      4542  TIP3      H1             12.6782763479       42.2856611917       15.5944957026  TIP3      4406            0.0000000000
     30592      4542  TIP3      H2             12.9245024794       43.3465250744       14.5670368814  TIP3      4406            0.0000000000
     30593      4543  TIP3      OH2            14.1788343216       47.6503227255        1.0269168909  TIP3      4407            0.0000000000
     30594      4543  TIP3      H1             14.5134745297       47.4968553790        0.1310424931  TIP3      4407            0.0000000000
     30595      4543  TIP3      H2             14.9345171195       48.1875202204        1.3353126203  TIP3      4407            0.0000000000
     30596      4544  TIP3      OH2            10.1959786649       41.7162482180        1.1300338955  TIP3      4408            0.0000000000
     30597      4544  TIP3      H1              9.8192955367       41.7030681714        2.0221933282  TIP3      4408            0.0000000000
     30598      4544  TIP3      H2              9.8776697596       40.8758306337        0.7736365274  TIP3      4408            0.0000000000
     30599      4545  TIP3      OH2             6.0183334033       43.8515704296       11.9485274905  TIP3      4409            0.0000000000
     30600      4545  TIP3      H1              5.3952724468       44.0371674054       12.6721804530  TIP3      4409            0.0000000000
     30601      4545  TIP3      H2              6.0200763919       44.7271470993       11.4808883442  TIP3      4409            0.0000000000
     30602      4546  TIP3      OH2             5.9533451366       43.7021800875        6.4297117564  TIP3      4410            0.0000000000
     30603      4546  TIP3      H1              4.9770708730       43.6306125444        6.3179536733  TIP3      4410            0.0000000000
     30604      4546  TIP3      H2              6.2493068386       43.3958782578        5.5483739077  TIP3      4410            0.0000000000
     30605      4547  TIP3      OH2            11.3710095529       44.7656215014        5.5622094847  TIP3      4411            0.0000000000
     30606      4547  TIP3      H1             11.0264397371       45.5015617219        4.9950565799  TIP3      4411            0.0000000000
     30607      4547  TIP3      H2             12.0269415104       44.3888836787        4.9328388322  TIP3      4411            0.0000000000
     30608      4548  TIP3      OH2             9.7575505054       44.8528468394       17.0462292980  TIP3      4412            0.0000000000
     30609      4548  TIP3      H1              9.4045436904       43.9792724350       17.3293963751  TIP3      4412            0.0000000000
     30610      4548  TIP3      H2             10.6258143590       44.8184873512       17.4844912000  TIP3      4412            0.0000000000
     30611      4549  TIP3      OH2            12.7751175455       44.3010772143        8.4317806321  TIP3      4413            0.0000000000
     30612      4549  TIP3      H1             12.4589584219       45.1591609033        8.0984961781  TIP3      4413            0.0000000000
     30613      4549  TIP3      H2             12.3274322812       43.7030546158        7.8121170289  TIP3      4413            0.0000000000
     30614      4550  TIP3      OH2             3.1230676647       44.0595704985       13.1151841991  TIP3      4414            0.0000000000
     30615      4550  TIP3      H1              3.1550862534       44.1325116270       14.0793355381  TIP3      4414            0.0000000000
     30616      4550  TIP3      H2              3.0190963946       43.0967798685       13.0102056526  TIP3      4414            0.0000000000
     30617      4551  TIP3      OH2             6.9181884322       42.0116525975        0.9676264685  TIP3      4415            0.0000000000
     30618      4551  TIP3      H1              7.0509758746       41.3601509072        1.6753830360  TIP3      4415            0.0000000000
     30619      4551  TIP3      H2              6.3847958132       42.7079241089        1.4053042725  TIP3      4415            0.0000000000
     30620      4552  TIP3      OH2             1.7514510498       41.0102518644        6.9920012850  TIP3      4416            0.0000000000
     30621      4552  TIP3      H1              1.1968984932       40.8842460848        7.7806141314  TIP3      4416            0.0000000000
     30622      4552  TIP3      H2              2.5222786620       40.4654523865        7.2146054491  TIP3      4416            0.0000000000
     30623      4553  TIP3      OH2             1.5169148391       42.0298731075        2.7588608618  TIP3      4417            0.0000000000
     30624      4553  TIP3      H1              1.7043942031       42.3818978835        1.8728427145  TIP3      4417            0.0000000000
     30625      4553  TIP3      H2              0.8709959454       42.6704152189        3.1032767680  TIP3      4417            0.0000000000
     30626      4554  TIP3      OH2            11.6164538303       45.8949107109       12.6721002855  TIP3      4418            0.0000000000
     30627      4554  TIP3      H1             12.1742438063       45.2457140153       12.1896042811  TIP3      4418            0.0000000000
     30628      4554  TIP3      H2             11.1330899672       45.3061628466       13.2896008537  TIP3      4418            0.0000000000
     30629      4555  TIP3      OH2             8.9235626158       41.5520027498        7.4429839792  TIP3      4419            0.0000000000
     30630      4555  TIP3      H1              8.0708757909       41.6532764140        7.8903913723  TIP3      4419            0.0000000000
     30631      4555  TIP3      H2              9.4561588204       41.1158386960        8.1281984949  TIP3      4419            0.0000000000
     30632      4556  TIP3      OH2             3.2869190799       43.4227596661        6.1856801514  TIP3      4420            0.0000000000
     30633      4556  TIP3      H1              2.5621881452       43.9405733042        5.7682223763  TIP3      4420            0.0000000000
     30634      4556  TIP3      H2              2.9424457340       42.5143402956        6.1807865859  TIP3      4420            0.0000000000
     30635      4557  TIP3      OH2             6.5180836265       43.0253745530        3.9645030248  TIP3      4421            0.0000000000
     30636      4557  TIP3      H1              7.4456315328       43.2262841715        4.2247357399  TIP3      4421            0.0000000000
     30637      4557  TIP3      H2              6.3144978270       43.7315691767        3.3204256850  TIP3      4421            0.0000000000
     30638      4558  TIP3      OH2            12.6981383755       41.0341910616       10.6091929021  TIP3      4422            0.0000000000
     30639      4558  TIP3      H1             11.8186189862       41.0660338336       11.0141206387  TIP3      4422            0.0000000000
     30640      4558  TIP3      H2             12.6325757156       40.2515843952       10.0415436273  TIP3      4422            0.0000000000
     30641      4559  TIP3      OH2             5.6701945428       44.3155882196        1.5476843124  TIP3      4423            0.0000000000
     30642      4559  TIP3      H1              5.1570715070       44.1406558128        0.7461004528  TIP3      4423            0.0000000000
     30643      4559  TIP3      H2              6.4540864679       44.7810813287        1.1758830999  TIP3      4423            0.0000000000
     30644      4560  TIP3      OH2            16.0625930116       56.3352207191       17.3330826774  TIP3      4424            0.0000000000
     30645      4560  TIP3      H1             16.4577544981       56.5658175682       16.4719925340  TIP3      4424            0.0000000000
     30646      4560  TIP3      H2             16.8019835677       56.5630872264       17.9327138183  TIP3      4424            0.0000000000
     30647      4561  TIP3      OH2             3.5939686347       48.8856070692       17.0393854754  TIP3      4425            0.0000000000
     30648      4561  TIP3      H1              4.2734463897       48.8538000387       17.7360002115  TIP3      4425            0.0000000000
     30649      4561  TIP3      H2              3.0385119601       48.1356870123       17.2821607002  TIP3      4425            0.0000000000
     30650      4562  TIP3      OH2             9.1425987353       44.4503586193        9.3303810891  TIP3      4426            0.0000000000
     30651      4562  TIP3      H1              9.9451866601       43.9634993318        9.0991870098  TIP3      4426            0.0000000000
     30652      4562  TIP3      H2              8.7447748509       43.8990236034       10.0240498392  TIP3      4426            0.0000000000
     30653      4563  TIP3      OH2             4.6706531601       40.0419031300        6.1770727679  TIP3      4427            0.0000000000
     30654      4563  TIP3      H1              4.0419686369       39.3217335692        6.3999579357  TIP3      4427            0.0000000000
     30655      4563  TIP3      H2              5.3057676432       39.5536680325        5.6284972123  TIP3      4427            0.0000000000
     30656      4564  TIP3      OH2             8.2205849436       42.4187892011       11.7445129292  TIP3      4428            0.0000000000
     30657      4564  TIP3      H1              7.3959731459       42.9551158262       11.7092241796  TIP3      4428            0.0000000000
     30658      4564  TIP3      H2              8.7843574010       42.9265935488       12.3426843326  TIP3      4428            0.0000000000
     30659      4565  TIP3      OH2             8.8741944369       48.7822658039        3.9210777241  TIP3      4429            0.0000000000
     30660      4565  TIP3      H1              8.0878860612       48.3173267047        3.5511281319  TIP3      4429            0.0000000000
     30661      4565  TIP3      H2              8.4694193285       49.1238370414        4.7592640079  TIP3      4429            0.0000000000
     30662      4566  TIP3      OH2            16.4661921690       48.6954880931       12.6954914968  TIP3      4430            0.0000000000
     30663      4566  TIP3      H1             16.8543731761       49.0947948375       11.8721371682  TIP3      4430            0.0000000000
     30664      4566  TIP3      H2             15.5951932451       48.4331141400       12.3517818425  TIP3      4430            0.0000000000
     30665      4567  TIP3      OH2            12.8677766074       41.7516474229        1.6403580921  TIP3      4431            0.0000000000
     30666      4567  TIP3      H1             11.9834372145       41.8474644682        1.2285830002  TIP3      4431            0.0000000000
     30667      4567  TIP3      H2             12.9013856924       42.5692970936        2.1615308398  TIP3      4431            0.0000000000
     30668      4568  TIP3      OH2            10.1503469189       49.3297182624       15.0073539488  TIP3      4432            0.0000000000
     30669      4568  TIP3      H1              9.5395870351       49.1061611048       15.7174181180  TIP3      4432            0.0000000000
     30670      4568  TIP3      H2             10.2869842142       50.2732585260       15.1955320403  TIP3      4432            0.0000000000
     30671      4569  TIP3      OH2            13.1130573903       43.9785481174        3.5986106083  TIP3      4433            0.0000000000
     30672      4569  TIP3      H1             13.8717945378       43.6489923138        4.1281685007  TIP3      4433            0.0000000000
     30673      4569  TIP3      H2             13.4458033333       44.8505840057        3.3116182733  TIP3      4433            0.0000000000
     30674      4570  TIP3      OH2             3.9075521535       48.5835061075        9.2356494155  TIP3      4434            0.0000000000
     30675      4570  TIP3      H1              4.3867547651       48.2060436848        8.4738599611  TIP3      4434            0.0000000000
     30676      4570  TIP3      H2              3.9136407553       47.8178823565        9.8347100695  TIP3      4434            0.0000000000
     30677      4571  TIP3      OH2            11.0220397804       50.1230596747        2.8756867492  TIP3      4435            0.0000000000
     30678      4571  TIP3      H1             10.7917930605       51.0334325164        3.1349946518  TIP3      4435            0.0000000000
     30679      4571  TIP3      H2             10.1968024359       49.6355080466        3.1119211800  TIP3      4435            0.0000000000
     30680      4572  TIP3      OH2             1.7189315226       46.3502287294       14.6570271696  TIP3      4436            0.0000000000
     30681      4572  TIP3      H1              1.4982057830       46.4268103662       15.6047469502  TIP3      4436            0.0000000000
     30682      4572  TIP3      H2              0.8518578154       46.0340164422       14.3285100525  TIP3      4436            0.0000000000
     30683      4573  TIP3      OH2             7.4266453729       46.5178110785       16.4943304065  TIP3      4437            0.0000000000
     30684      4573  TIP3      H1              6.8834543620       46.1697392137       15.7634928110  TIP3      4437            0.0000000000
     30685      4573  TIP3      H2              8.1674564484       45.8735444008       16.4952583476  TIP3      4437            0.0000000000
     30686      4574  TIP3      OH2            13.0019928601       51.6071244441       15.2628038869  TIP3      4438            0.0000000000
     30687      4574  TIP3      H1             12.4545772346       51.6353414728       14.4581707926  TIP3      4438            0.0000000000
     30688      4574  TIP3      H2             12.4361611742       52.1556564899       15.8398829847  TIP3      4438            0.0000000000
     30689      4575  TIP3      OH2            18.1823028653       43.6792612558        3.1672853806  TIP3      4439            0.0000000000
     30690      4575  TIP3      H1             17.4905751140       43.6201492575        2.4822780751  TIP3      4439            0.0000000000
     30691      4575  TIP3      H2             18.3404032517       44.6475121087        3.1128909810  TIP3      4439            0.0000000000
     30692      4576  TIP3      OH2            18.6305061741       49.2941160502       15.9775980714  TIP3      4440            0.0000000000
     30693      4576  TIP3      H1             17.8597247758       49.8346196851       15.7133758721  TIP3      4440            0.0000000000
     30694      4576  TIP3      H2             19.2063938057       49.4038758303       15.1831520388  TIP3      4440            0.0000000000
     30695      4577  TIP3      OH2            16.1704199597       52.6995667230        3.5869455333  TIP3      4441            0.0000000000
     30696      4577  TIP3      H1             16.1241531078       51.8071565873        3.9529940263  TIP3      4441            0.0000000000
     30697      4577  TIP3      H2             16.5821766328       52.5506693462        2.7081678883  TIP3      4441            0.0000000000
     30698      4578  TIP3      OH2            13.8066992124       47.4835068704       10.7420469284  TIP3      4442            0.0000000000
     30699      4578  TIP3      H1             12.9540968126       47.1286855053       10.4148762981  TIP3      4442            0.0000000000
     30700      4578  TIP3      H2             14.4588547911       46.9682764124       10.2258381995  TIP3      4442            0.0000000000
     30701      4579  TIP3      OH2             6.3431315160       51.6494949833        7.0906821075  TIP3      4443            0.0000000000
     30702      4579  TIP3      H1              6.5503880914       52.5722803167        6.8747281667  TIP3      4443            0.0000000000
     30703      4579  TIP3      H2              5.5563824962       51.5292053257        6.5404892648  TIP3      4443            0.0000000000
     30704      4580  TIP3      OH2             0.9569571502       46.9207079605        1.4009515660  TIP3      4444            0.0000000000
     30705      4580  TIP3      H1              1.8632940431       47.2403241448        1.4979644456  TIP3      4444            0.0000000000
     30706      4580  TIP3      H2              0.4383201355       47.6489511383        1.7892889088  TIP3      4444            0.0000000000
     30707      4581  TIP3      OH2             7.6077516419       49.4714790654        6.1498229579  TIP3      4445            0.0000000000
     30708      4581  TIP3      H1              7.1800579604       50.2394708541        6.5868069058  TIP3      4445            0.0000000000
     30709      4581  TIP3      H2              7.2962327908       48.7112351358        6.6730755596  TIP3      4445            0.0000000000
     30710      4582  TIP3      OH2             8.3304167031       53.7756796781       13.1978691203  TIP3      4446            0.0000000000
     30711      4582  TIP3      H1              8.9976728839       54.4538553351       12.9892159955  TIP3      4446            0.0000000000
     30712      4582  TIP3      H2              8.7943839849       53.2757901509       13.8995061202  TIP3      4446            0.0000000000
     30713      4583  TIP3      OH2             6.7001121071       54.3390915210        5.6483354098  TIP3      4447            0.0000000000
     30714      4583  TIP3      H1              5.7543696315       54.3226774429        5.9257247100  TIP3      4447            0.0000000000
     30715      4583  TIP3      H2              6.9522682011       55.2073703793        6.0422222698  TIP3      4447            0.0000000000
     30716      4584  TIP3      OH2            11.5670115261       49.5344122458       12.4961061493  TIP3      4448            0.0000000000
     30717      4584  TIP3      H1             11.1948276490       49.1739063174       13.3374329799  TIP3      4448            0.0000000000
     30718      4584  TIP3      H2             12.0780598989       48.7739327281       12.1597003871  TIP3      4448            0.0000000000
     30719      4585  TIP3      OH2            13.8957107526       50.9120726358        1.8319107965  TIP3      4449            0.0000000000
     30720      4585  TIP3      H1             14.1466510290       50.2749891029        2.5359955755  TIP3      4449            0.0000000000
     30721      4585  TIP3      H2             12.9595712008       50.6652031608        1.7443556870  TIP3      4449            0.0000000000
     30722      4586  TIP3      OH2            14.7627623853       53.9931024190       14.9286169045  TIP3      4450            0.0000000000
     30723      4586  TIP3      H1             13.9765803478       53.4189058648       14.8915422202  TIP3      4450            0.0000000000
     30724      4586  TIP3      H2             14.6535000973       54.5417311949       14.1270606254  TIP3      4450            0.0000000000
     30725      4587  TIP3      OH2            18.3630723867       54.9164417176        1.6491295451  TIP3      4451            0.0000000000
     30726      4587  TIP3      H1             18.9325840567       55.6904047056        1.5127921755  TIP3      4451            0.0000000000
     30727      4587  TIP3      H2             17.5522720986       55.3538641363        1.9878809641  TIP3      4451            0.0000000000
     30728      4588  TIP3      OH2             2.8981890045       41.4190552234       14.3242706491  TIP3      4452            0.0000000000
     30729      4588  TIP3      H1              2.3584404010       42.0217907683       14.8946797711  TIP3      4452            0.0000000000
     30730      4588  TIP3      H2              2.3704551837       40.6157205032       14.4652857467  TIP3      4452            0.0000000000
     30731      4589  TIP3      OH2            14.9196504048       49.2585157680        3.7535213720  TIP3      4453            0.0000000000
     30732      4589  TIP3      H1             14.7143543170       48.5477767300        4.4020531385  TIP3      4453            0.0000000000
     30733      4589  TIP3      H2             15.8976926766       49.2481515856        3.8159960929  TIP3      4453            0.0000000000
     30734      4590  TIP3      OH2             2.3891853844       53.0886266199       12.7592102648  TIP3      4454            0.0000000000
     30735      4590  TIP3      H1              3.0546481335       52.4781132032       13.1094853170  TIP3      4454            0.0000000000
     30736      4590  TIP3      H2              2.5366390952       53.8527842205       13.3280661403  TIP3      4454            0.0000000000
     30737      4591  TIP3      OH2             7.0982919859       51.3362987424        2.3562500884  TIP3      4455            0.0000000000
     30738      4591  TIP3      H1              7.7484556842       50.9130204089        2.9373537488  TIP3      4455            0.0000000000
     30739      4591  TIP3      H2              7.1232364935       52.2801448296        2.6351435186  TIP3      4455            0.0000000000
     30740      4592  TIP3      OH2             3.4232399427       48.4647187126        2.9002691589  TIP3      4456            0.0000000000
     30741      4592  TIP3      H1              2.6289195374       48.8866982718        3.3189621453  TIP3      4456            0.0000000000
     30742      4592  TIP3      H2              3.9062281056       49.2574047119        2.5914082674  TIP3      4456            0.0000000000
     30743      4593  TIP3      OH2            11.2496546176       41.1948389647       13.5744875445  TIP3      4457            0.0000000000
     30744      4593  TIP3      H1             12.1347440077       41.2292524815       13.9693429214  TIP3      4457            0.0000000000
     30745      4593  TIP3      H2             11.0456014659       40.2409662732       13.6432463709  TIP3      4457            0.0000000000
     30746      4594  TIP3      OH2            12.0772258165       40.8932691377        4.4868195330  TIP3      4458            0.0000000000
     30747      4594  TIP3      H1             12.6498065494       41.1455839680        3.7447453220  TIP3      4458            0.0000000000
     30748      4594  TIP3      H2             12.6254260889       41.1571295340        5.2639316811  TIP3      4458            0.0000000000
     30749      4595  TIP3      OH2             9.9844910099       52.6434920877        3.5941434228  TIP3      4459            0.0000000000
     30750      4595  TIP3      H1              9.3150877910       53.3220999941        3.7648109207  TIP3      4459            0.0000000000
     30751      4595  TIP3      H2             10.4298171589       52.9786801382        2.7840194005  TIP3      4459            0.0000000000
     30752      4596  TIP3      OH2             9.1566790665       42.8953291661        5.0523604056  TIP3      4460            0.0000000000
     30753      4596  TIP3      H1              9.9217821522       43.4604910285        5.2609836207  TIP3      4460            0.0000000000
     30754      4596  TIP3      H2              8.9876153865       42.4477090902        5.9070060273  TIP3      4460            0.0000000000
     30755      4597  TIP3      OH2            10.4301111456       43.8336364803       14.0952346054  TIP3      4461            0.0000000000
     30756      4597  TIP3      H1             10.2065212064       44.0463431470       15.0198635292  TIP3      4461            0.0000000000
     30757      4597  TIP3      H2             10.6287717318       42.8723054028       14.1109087684  TIP3      4461            0.0000000000
     30758      4598  TIP3      OH2            10.2120981399       39.4318528644        5.7231443015  TIP3      4462            0.0000000000
     30759      4598  TIP3      H1              9.8883642089       40.0850197171        6.3723241057  TIP3      4462            0.0000000000
     30760      4598  TIP3      H2             10.9643748938       39.9460477703        5.3148581866  TIP3      4462            0.0000000000
     30761      4599  TIP3      OH2             6.9644178431       53.9858355193        2.9422264525  TIP3      4463            0.0000000000
     30762      4599  TIP3      H1              7.2517226343       54.8543613630        2.5921867368  TIP3      4463            0.0000000000
     30763      4599  TIP3      H2              6.8768050475       54.1837188821        3.9011891980  TIP3      4463            0.0000000000
     30764      4600  TIP3      OH2             5.7342928084       40.5370807829        2.9611906584  TIP3      4464            0.0000000000
     30765      4600  TIP3      H1              5.6915881834       41.4315581924        3.3432947167  TIP3      4464            0.0000000000
     30766      4600  TIP3      H2              6.6207953992       40.2818160303        3.2819428994  TIP3      4464            0.0000000000
     30767      4601  TIP3      OH2            15.9677506935       41.2502689006       15.6437889667  TIP3      4465            0.0000000000
     30768      4601  TIP3      H1             15.0342465178       41.2030838682       15.3779794076  TIP3      4465            0.0000000000
     30769      4601  TIP3      H2             16.3922108248       41.3871311363       14.7729652072  TIP3      4465            0.0000000000
     30770      4602  TIP3      OH2            15.1361154714       45.5453684968        9.0248951558  TIP3      4466            0.0000000000
     30771      4602  TIP3      H1             14.3129311536       45.0263130479        9.0345962680  TIP3      4466            0.0000000000
     30772      4602  TIP3      H2             15.7458295165       44.9820449218        9.5539359503  TIP3      4466            0.0000000000
     30773      4603  TIP3      OH2             4.1482606537       51.2227543821        1.5623592425  TIP3      4467            0.0000000000
     30774      4603  TIP3      H1              4.9143339245       51.6097215439        2.0146657157  TIP3      4467            0.0000000000
     30775      4603  TIP3      H2              4.6009209928       50.5402997613        1.0185127557  TIP3      4467            0.0000000000
     30776      4604  TIP3      OH2             1.6812695048       43.9816487835        0.4929039831  TIP3      4468            0.0000000000
     30777      4604  TIP3      H1              2.4935221737       44.2712996810        0.9374304109  TIP3      4468            0.0000000000
     30778      4604  TIP3      H2              1.9079337136       44.1579633475       -0.4484145886  TIP3      4468            0.0000000000
     30779      4605  TIP3      OH2            15.7285968101       54.3808212569       10.7861111175  TIP3      4469            0.0000000000
     30780      4605  TIP3      H1             15.8265117846       55.0774273319       10.1096616585  TIP3      4469            0.0000000000
     30781      4605  TIP3      H2             16.6664110216       54.1621762909       10.9327656844  TIP3      4469            0.0000000000
     30782      4606  TIP3      OH2             3.2739661757       38.5716353052        9.6621051925  TIP3      4470            0.0000000000
     30783      4606  TIP3      H1              3.2210623058       38.3096878076        8.7141748618  TIP3      4470            0.0000000000
     30784      4606  TIP3      H2              2.9195248591       37.7400321781       10.0617591724  TIP3      4470            0.0000000000
     30785      4607  TIP3      OH2             2.3237094163       52.4102734485        6.5703177974  TIP3      4471            0.0000000000
     30786      4607  TIP3      H1              1.8754482962       53.1295594316        7.0850737324  TIP3      4471            0.0000000000
     30787      4607  TIP3      H2              2.0230113822       52.6097752748        5.6657325184  TIP3      4471            0.0000000000
     30788      4608  TIP3      OH2             1.2711891238       54.7240791952       17.0989300911  TIP3      4472            0.0000000000
     30789      4608  TIP3      H1              1.8352626193       54.7527731151       17.8984634732  TIP3      4472            0.0000000000
     30790      4608  TIP3      H2              1.0891048327       53.7781339484       17.0239335473  TIP3      4472            0.0000000000
     30791      4609  TIP3      OH2             6.2697734530       54.3382865841       18.0682043374  TIP3      4473            0.0000000000
     30792      4609  TIP3      H1              6.9664871982       53.8614532518       18.5382800475  TIP3      4473            0.0000000000
     30793      4609  TIP3      H2              5.9069939389       53.6943794216       17.4213407554  TIP3      4473            0.0000000000
     30794      4610  TIP3      OH2            10.7726275388       53.6241500891        1.1330900093  TIP3      4474            0.0000000000
     30795      4610  TIP3      H1             10.1037187084       53.1393415675        0.6176590896  TIP3      4474            0.0000000000
     30796      4610  TIP3      H2             11.2495673287       54.0368792628        0.3767807543  TIP3      4474            0.0000000000
     30797      4611  TIP3      OH2            12.3354882109       52.8395316651       17.5534320378  TIP3      4475            0.0000000000
     30798      4611  TIP3      H1             11.9642056956       51.9295093691       17.6834222071  TIP3      4475            0.0000000000
     30799      4611  TIP3      H2             13.2707015228       52.6390656499       17.3975635911  TIP3      4475            0.0000000000
     30800      4612  TIP3      OH2            15.0899695398       53.1222231623        0.4100612407  TIP3      4476            0.0000000000
     30801      4612  TIP3      H1             14.6915056393       52.4180209174        0.9629671612  TIP3      4476            0.0000000000
     30802      4612  TIP3      H2             16.0219837246       52.8497906745        0.4639656943  TIP3      4476            0.0000000000
     30803      4613  TIP3      OH2             5.5641260101       49.1644880463        0.4806871450  TIP3      4477            0.0000000000
     30804      4613  TIP3      H1              6.2403402389       48.9112271286        1.1406004223  TIP3      4477            0.0000000000
     30805      4613  TIP3      H2              6.0087614131       48.9922056112       -0.3657266315  TIP3      4477            0.0000000000
     30806      4614  TIP3      OH2             8.0319988231       49.0200906684       17.1637474123  TIP3      4478            0.0000000000
     30807      4614  TIP3      H1              7.7957152429       49.6685208598       16.4568075287  TIP3      4478            0.0000000000
     30808      4614  TIP3      H2              7.8646201186       48.1460961661       16.7313980873  TIP3      4478            0.0000000000
     30809      4615  TIP3      OH2            13.6990329380       48.7139494237       14.9286673550  TIP3      4479            0.0000000000
     30810      4615  TIP3      H1             14.5971116399       49.0950497704       15.0214794452  TIP3      4479            0.0000000000
     30811      4615  TIP3      H2             13.2093788699       49.5430066349       15.0740270936  TIP3      4479            0.0000000000
     30812      4616  TIP3      OH2             1.5722070528       46.3956075644       17.4251392851  TIP3      4480            0.0000000000
     30813      4616  TIP3      H1              2.5023918486       46.2625887470       17.2208995941  TIP3      4480            0.0000000000
     30814      4616  TIP3      H2              1.4701655506       45.6921651632       18.1043686249  TIP3      4480            0.0000000000
     30815      4617  TIP3      OH2             6.8339505164       47.6291967085        2.5138880708  TIP3      4481            0.0000000000
     30816      4617  TIP3      H1              6.0089375119       47.1700217178        2.7510473439  TIP3      4481            0.0000000000
     30817      4617  TIP3      H2              7.3116324834       46.9760744145        1.9634649186  TIP3      4481            0.0000000000
     30818      4618  TIP3      OH2             6.0331283597       45.1297751653       14.4896657019  TIP3      4482            0.0000000000
     30819      4618  TIP3      H1              5.4929758367       45.9498719191       14.4673567035  TIP3      4482            0.0000000000
     30820      4618  TIP3      H2              6.8168007615       45.4220659592       13.9712209773  TIP3      4482            0.0000000000
     30821      4619  TIP3      OH2             7.8043815329       45.6635157943        0.5490062212  TIP3      4483            0.0000000000
     30822      4619  TIP3      H1              8.0179277782       45.6585376747       -0.3999510807  TIP3      4483            0.0000000000
     30823      4619  TIP3      H2              8.7080767275       45.6814915779        0.9447102655  TIP3      4483            0.0000000000
     30824      4620  TIP3      OH2            11.3987378967       47.9415810491       18.3074060552  TIP3      4484            0.0000000000
     30825      4620  TIP3      H1             12.1282193494       47.5557161145       17.7950407427  TIP3      4484            0.0000000000
     30826      4620  TIP3      H2             10.6348529258       47.3954277475       18.0756237253  TIP3      4484            0.0000000000
     30827      4621  TIP3      OH2            16.7437753990       48.5988379836       85.0743802230  TIP3      4485            0.0000000000
     30828      4621  TIP3      H1             16.4792383109       48.6535463725       84.1416040329  TIP3      4485            0.0000000000
     30829      4621  TIP3      H2             17.2646714170       49.4057392980       85.1919479211  TIP3      4485            0.0000000000
     30830      4622  TIP3      OH2             7.2396563783       42.9121615020       15.4780942785  TIP3      4486            0.0000000000
     30831      4622  TIP3      H1              7.0268426840       42.2265445290       14.8055202955  TIP3      4486            0.0000000000
     30832      4622  TIP3      H2              6.8661776271       43.7234970736       15.0604805803  TIP3      4486            0.0000000000
     30833      4623  TIP3      OH2             6.9203212661       40.8907557159       13.6274738538  TIP3      4487            0.0000000000
     30834      4623  TIP3      H1              7.3853685340       41.1941474762       12.8149636883  TIP3      4487            0.0000000000
     30835      4623  TIP3      H2              5.9883982810       40.8991977642       13.3248048268  TIP3      4487            0.0000000000
     30836      4624  TIP3      OH2             8.2095972855       46.6888144891       13.5401733300  TIP3      4488            0.0000000000
     30837      4624  TIP3      H1              9.0319561951       46.9452283264       13.1032717344  TIP3      4488            0.0000000000
     30838      4624  TIP3      H2              7.6062935593       47.3391962259       13.1296838210  TIP3      4488            0.0000000000
     30839      4625  TIP3      OH2            12.1605739937       44.2645952649       18.6527212774  TIP3      4489            0.0000000000
     30840      4625  TIP3      H1             12.0339160430       43.4181596709       18.1756612379  TIP3      4489            0.0000000000
     30841      4625  TIP3      H2             13.0985071329       44.4620268260       18.5182691499  TIP3      4489            0.0000000000
     30842      4626  TIP3      OH2            14.2898637957       47.2321263056       17.1535191936  TIP3      4490            0.0000000000
     30843      4626  TIP3      H1             14.0401701077       47.6297368840       16.2933890057  TIP3      4490            0.0000000000
     30844      4626  TIP3      H2             15.2175771814       46.9898860185       16.9507000379  TIP3      4490            0.0000000000
     30845      4627  TIP3      OH2             5.7445456100       43.2384682141       17.7996501115  TIP3      4491            0.0000000000
     30846      4627  TIP3      H1              4.8310466534       43.0576945985       17.5355566727  TIP3      4491            0.0000000000
     30847      4627  TIP3      H2              6.2177242570       43.0466389014       16.9644735718  TIP3      4491            0.0000000000
     30848      4628  TIP3      OH2             8.0443227000       38.3662667740       13.2949676026  TIP3      4492            0.0000000000
     30849      4628  TIP3      H1              7.6249321499       39.2322822847       13.4825139452  TIP3      4492            0.0000000000
     30850      4628  TIP3      H2              7.2589868949       37.8249342929       13.1258692969  TIP3      4492            0.0000000000
     30851      4629  TIP3      OH2             8.9020117404       42.3912381842       17.6685399225  TIP3      4493            0.0000000000
     30852      4629  TIP3      H1              8.2551540535       42.3257310946       18.3966435639  TIP3      4493            0.0000000000
     30853      4629  TIP3      H2              8.3183755752       42.3166640732       16.8792323964  TIP3      4493            0.0000000000
     30854      4630  TIP3      OH2            11.5268008630       42.0685820599       16.7637453101  TIP3      4494            0.0000000000
     30855      4630  TIP3      H1             10.5877622581       41.8534166740       16.9136088547  TIP3      4494            0.0000000000
     30856      4630  TIP3      H2             11.9659168477       41.3744937224       17.3086021937  TIP3      4494            0.0000000000
     30857      4631  TIP3      OH2            12.7345608960       40.3344301065       18.3886011039  TIP3      4495            0.0000000000
     30858      4631  TIP3      H1             13.1565219789       39.4473697036       18.3448827192  TIP3      4495            0.0000000000
     30859      4631  TIP3      H2             11.8962799299       40.1285457731       18.8474496116  TIP3      4495            0.0000000000
     30860      4632  TIP3      OH2             2.9154408460       41.6631046997       18.0219780177  TIP3      4496            0.0000000000
     30861      4632  TIP3      H1              2.9918172760       40.9656323641       17.3387082318  TIP3      4496            0.0000000000
     30862      4632  TIP3      H2              2.9811729759       41.1418383945       18.8390457995  TIP3      4496            0.0000000000
     30863      4633  TIP3      OH2             7.5630219436       37.6737189440       16.9476804934  TIP3      4497            0.0000000000
     30864      4633  TIP3      H1              8.3054111473       37.0703673973       16.7587106309  TIP3      4497            0.0000000000
     30865      4633  TIP3      H2              7.2315681890       37.8588425196       16.0588752464  TIP3      4497            0.0000000000
     30866      4634  TIP3      OH2             8.1146393583       39.2478737229       19.1804236807  TIP3      4498            0.0000000000
     30867      4634  TIP3      H1              7.8664545334       38.7596065453       18.3659896137  TIP3      4498            0.0000000000
     30868      4634  TIP3      H2              7.3897275839       39.9009604918       19.2881975502  TIP3      4498            0.0000000000
     30869      4635  TIP3      OH2             7.6621352121       56.4181877809        1.6198687626  TIP3      4499            0.0000000000
     30870      4635  TIP3      H1              8.5282797841       56.7670816728        1.8737077315  TIP3      4499            0.0000000000
     30871      4635  TIP3      H2              7.8206582865       56.2769381477        0.6615239995  TIP3      4499            0.0000000000
     30872      4636  TIP3      OH2             1.3191390095       50.9608461095        0.7974608563  TIP3      4500            0.0000000000
     30873      4636  TIP3      H1              2.1177526060       51.4384850439        1.0798683192  TIP3      4500            0.0000000000
     30874      4636  TIP3      H2              1.3885511623       50.9252640805       -0.1750705362  TIP3      4500            0.0000000000
     30875      4637  TIP3      OH2            66.1504476318       55.7102164877        5.9991034428  TIP3      4501            0.0000000000
     30876      4637  TIP3      H1             65.2280508047       55.5344863070        6.2239251197  TIP3      4501            0.0000000000
     30877      4637  TIP3      H2             66.5910284423       55.3021179124        6.7618409197  TIP3      4501            0.0000000000
     30878      4638  TIP3      OH2             1.1283167018       54.1924185904        8.1124323490  TIP3      4502            0.0000000000
     30879      4638  TIP3      H1              0.7915759157       53.4827895499        8.6992747241  TIP3      4502            0.0000000000
     30880      4638  TIP3      H2              1.6712801991       54.7002143066        8.7489738193  TIP3      4502            0.0000000000
     30881      4639  TIP3      OH2            18.6014949798       54.6769701469       10.9002208680  TIP3      4503            0.0000000000
     30882      4639  TIP3      H1             18.8623841634       55.0562372609       11.7506924537  TIP3      4503            0.0000000000
     30883      4639  TIP3      H2             18.5169332842       55.4723715136       10.3449218727  TIP3      4503            0.0000000000
     30884      4640  TIP3      OH2            18.0556043994       54.5106671626       13.8979722407  TIP3      4504            0.0000000000
     30885      4640  TIP3      H1             17.7374369073       53.7175375661       13.4149685735  TIP3      4504            0.0000000000
     30886      4640  TIP3      H2             18.3683187744       54.1000709588       14.7187631096  TIP3      4504            0.0000000000
     30887      4641  TIP3      OH2            16.8370521868       50.4497429197       18.6031315445  TIP3      4505            0.0000000000
     30888      4641  TIP3      H1             15.8883545996       50.3084957895       18.7202538729  TIP3      4505            0.0000000000
     30889      4641  TIP3      H2             16.9780428658       51.3586657818       18.9339999900  TIP3      4505            0.0000000000
     30890      4642  TIP3      OH2            17.7325789379       48.6678597204        4.0089111085  TIP3      4506            0.0000000000
     30891      4642  TIP3      H1             18.6447275896       49.0440535390        4.0100530762  TIP3      4506            0.0000000000
     30892      4642  TIP3      H2             17.7211662046       48.1768891909        4.8673532823  TIP3      4506            0.0000000000
     30893      4643  TIP3      OH2            18.1477404562       47.0181076930        6.1971621183  TIP3      4507            0.0000000000
     30894      4643  TIP3      H1             17.4262853978       46.3916812540        6.4429360499  TIP3      4507            0.0000000000
     30895      4643  TIP3      H2             18.7362923176       46.9464367526        6.9789549557  TIP3      4507            0.0000000000
     30896      4644  TIP3      OH2            17.6846553326       49.4822151455       10.5033476430  TIP3      4508            0.0000000000
     30897      4644  TIP3      H1             18.5052772812       48.9433408619       10.4746811407  TIP3      4508            0.0000000000
     30898      4644  TIP3      H2             18.0247150187       50.3637759328       10.2926547670  TIP3      4508            0.0000000000
     30899      4645  TIP3      OH2            16.6449340463       52.2781236538       12.9550484099  TIP3      4509            0.0000000000
     30900      4645  TIP3      H1             15.9377231389       52.8372930104       13.3060794926  TIP3      4509            0.0000000000
     30901      4645  TIP3      H2             16.2192233073       51.8266538032       12.2022840511  TIP3      4509            0.0000000000
     30902      4646  TIP3      OH2            17.7895601007       46.3797537482        2.3884927607  TIP3      4510            0.0000000000
     30903      4646  TIP3      H1             17.5382898990       46.7494441427        1.5284345749  TIP3      4510            0.0000000000
     30904      4646  TIP3      H2             17.9004656440       47.1997073151        2.9141724926  TIP3      4510            0.0000000000
     30905      4647  TIP3      OH2            16.0895586013       43.6592842083        1.0515971745  TIP3      4511            0.0000000000
     30906      4647  TIP3      H1             16.7761608352       44.1814839211        0.6094891215  TIP3      4511            0.0000000000
     30907      4647  TIP3      H2             16.1903943968       42.7932932994        0.5977251152  TIP3      4511            0.0000000000
     30908      4648  TIP3      OH2            16.2628973995       45.1412601615        6.6078833185  TIP3      4512            0.0000000000
     30909      4648  TIP3      H1             15.9296330580       44.2548618528        6.3954225222  TIP3      4512            0.0000000000
     30910      4648  TIP3      H2             15.9001459789       45.3029266659        7.5087533095  TIP3      4512            0.0000000000
     30911      4649  TIP3      OH2             1.0897215405       47.0922029238       10.8474042671  TIP3      4513            0.0000000000
     30912      4649  TIP3      H1              1.1185633815       47.0270380475        9.8576652411  TIP3      4513            0.0000000000
     30913      4649  TIP3      H2              2.0048140804       46.7933406249       11.0559141410  TIP3      4513            0.0000000000
     30914      4650  TIP3      OH2            16.9144416784       47.1384291867       16.0764057730  TIP3      4514            0.0000000000
     30915      4650  TIP3      H1             17.5100502121       46.3585925775       16.0385168363  TIP3      4514            0.0000000000
     30916      4650  TIP3      H2             17.5095531579       47.8883045823       15.8684365644  TIP3      4514            0.0000000000
     30917      4651  TIP3      OH2            18.2591770509       44.5677583311       16.3746675838  TIP3      4515            0.0000000000
     30918      4651  TIP3      H1             17.3178556013       44.4528141324       16.6116796637  TIP3      4515            0.0000000000
     30919      4651  TIP3      H2             18.6186810713       43.6892195201       16.6269853619  TIP3      4515            0.0000000000
     30920      4652  TIP3      OH2            15.9291532343       41.2337865389       -0.0756335357  TIP3      4516            0.0000000000
     30921      4652  TIP3      H1             16.4338822535       40.8198565874        0.6581516249  TIP3      4516            0.0000000000
     30922      4652  TIP3      H2             15.0064916312       41.2563480092        0.2578853820  TIP3      4516            0.0000000000
     30923      4653  TIP3      OH2            15.3725108752       43.1688961956        4.8210479133  TIP3      4517            0.0000000000
     30924      4653  TIP3      H1             15.7715771707       42.3476171012        5.2044207042  TIP3      4517            0.0000000000
     30925      4653  TIP3      H2             16.0357360274       43.3178969297        4.1286595779  TIP3      4517            0.0000000000
     30926      4654  TIP3      OH2            16.7859609020       43.8654563149       10.6114248290  TIP3      4518            0.0000000000
     30927      4654  TIP3      H1             17.7679803757       43.8242452586       10.6607287502  TIP3      4518            0.0000000000
     30928      4654  TIP3      H2             16.6455428909       43.9677358155       11.5784943931  TIP3      4518            0.0000000000
     30929      4655  TIP3      OH2            16.6753066696       44.2819982721       13.3206605090  TIP3      4519            0.0000000000
     30930      4655  TIP3      H1             15.8463578732       44.6408688260       13.7118486999  TIP3      4519            0.0000000000
     30931      4655  TIP3      H2             17.1732399971       45.1305981694       13.1984118581  TIP3      4519            0.0000000000
     30932      4656  TIP3      OH2             1.4766889782       42.8947925919       16.0982618485  TIP3      4520            0.0000000000
     30933      4656  TIP3      H1              2.0253183966       42.6924227638       16.8842377008  TIP3      4520            0.0000000000
     30934      4656  TIP3      H2              0.6001030051       42.7897616060       16.5240560040  TIP3      4520            0.0000000000
     30935      4657  TIP3      OH2            18.0113738058       37.3396917692       18.7321213729  TIP3      4521            0.0000000000
     30936      4657  TIP3      H1             18.9411550101       37.2835208068       18.4841071809  TIP3      4521            0.0000000000
     30937      4657  TIP3      H2             17.9694364933       38.2659083422       19.0221939272  TIP3      4521            0.0000000000
     30938      4658  TIP3      OH2            16.6675442628       40.9462677440        5.3543196069  TIP3      4522            0.0000000000
     30939      4658  TIP3      H1             16.9303460266       40.3752098723        6.1022635674  TIP3      4522            0.0000000000
     30940      4658  TIP3      H2             16.2661423275       40.2815103666        4.7733829547  TIP3      4522            0.0000000000
     30941      4659  TIP3      OH2             2.1249375900       41.0320046125       10.0557550153  TIP3      4523            0.0000000000
     30942      4659  TIP3      H1              2.4911830638       40.1204536221        9.9782525804  TIP3      4523            0.0000000000
     30943      4659  TIP3      H2              2.9180289465       41.6079441379       10.0525801726  TIP3      4523            0.0000000000
     30944      4660  TIP3      OH2             0.4760858804       43.9922487663       10.7575170092  TIP3      4524            0.0000000000
     30945      4660  TIP3      H1              1.1102948662       43.4921023918       10.2191724810  TIP3      4524            0.0000000000
     30946      4660  TIP3      H2              0.9625666615       44.8149605685       10.9040764998  TIP3      4524            0.0000000000
     30947      4661  TIP3      OH2            17.7590209064       39.7345898410       17.1400943578  TIP3      4525            0.0000000000
     30948      4661  TIP3      H1             17.0773042298       40.3372972168       16.7725138654  TIP3      4525            0.0000000000
     30949      4661  TIP3      H2             17.8514368125       39.1495087221       16.3619612933  TIP3      4525            0.0000000000
     30950      4662  TIP3      OH2            17.8439853739       40.4407737624        1.6050224988  TIP3      4526            0.0000000000
     30951      4662  TIP3      H1             18.2265922607       40.3566889145        0.7178051118  TIP3      4526            0.0000000000
     30952      4662  TIP3      H2             18.4570151040       41.0988733890        1.9821789514  TIP3      4526            0.0000000000
     30953      4663  TIP3      OH2             1.0577180053       39.8775216941        4.5251858236  TIP3      4527            0.0000000000
     30954      4663  TIP3      H1              1.4413749105       40.2584987520        5.3386963500  TIP3      4527            0.0000000000
     30955      4663  TIP3      H2              1.4318796148       40.4233849302        3.8053305508  TIP3      4527            0.0000000000
     30956      4664  TIP3      OH2            15.8633443241       55.1215166141        7.0971909435  TIP3      4528            0.0000000000
     30957      4664  TIP3      H1             16.5954868170       54.9855893082        6.4594709842  TIP3      4528            0.0000000000
     30958      4664  TIP3      H2             16.2970531643       55.5988726736        7.8251990501  TIP3      4528            0.0000000000
     30959      4665  TIP3      OH2             0.5941915273       38.6364844619       12.7476498857  TIP3      4529            0.0000000000
     30960      4665  TIP3      H1             -0.3030930104       38.3786032198       13.0502267573  TIP3      4529            0.0000000000
     30961      4665  TIP3      H2              0.3718705346       39.3787148860       12.1654083379  TIP3      4529            0.0000000000
     30962      4666  TIP3      OH2             2.6601301511       51.7469045854       17.2027568375  TIP3      4530            0.0000000000
     30963      4666  TIP3      H1              2.2612856530       51.0102809106       16.7106623063  TIP3      4530            0.0000000000
     30964      4666  TIP3      H2              2.9930657854       51.2883051370       17.9827696407  TIP3      4530            0.0000000000
     30965      4667  TIP3      OH2             5.6197421163       53.4622225593       13.7323278926  TIP3      4531            0.0000000000
     30966      4667  TIP3      H1              5.5282386280       54.3825209502       13.3822573082  TIP3      4531            0.0000000000
     30967      4667  TIP3      H2              6.5880849685       53.3682141581       13.6189284899  TIP3      4531            0.0000000000
     30968      4668  TIP3      OH2             9.8278004033       54.6986801285       16.4803257842  TIP3      4532            0.0000000000
     30969      4668  TIP3      H1              9.8897830142       54.5434062555       17.4480509548  TIP3      4532            0.0000000000
     30970      4668  TIP3      H2             10.7058728049       55.0714960377       16.2580885277  TIP3      4532            0.0000000000
     30971      4669  TIP3      OH2            12.1136062117       56.1552622749       15.8217059116  TIP3      4533            0.0000000000
     30972      4669  TIP3      H1             12.8187124559       55.8827669491       15.2156897761  TIP3      4533            0.0000000000
     30973      4669  TIP3      H2             12.5751273740       56.5678593917       16.5709807955  TIP3      4533            0.0000000000
     30974      4670  TIP3      OH2            17.1703922326       38.2785497997       14.9089576728  TIP3      4534            0.0000000000
     30975      4670  TIP3      H1             16.3962134783       38.5593828373       14.3969977154  TIP3      4534            0.0000000000
     30976      4670  TIP3      H2             17.3426357149       37.3721750133       14.5526514783  TIP3      4534            0.0000000000
     30977      4671  TIP3      OH2             3.0213226524       56.5308222363       13.5956154948  TIP3      4535            0.0000000000
     30978      4671  TIP3      H1              2.2685944385       57.1347697928       13.4184436904  TIP3      4535            0.0000000000
     30979      4671  TIP3      H2              2.9768608411       56.4162487608       14.5586142308  TIP3      4535            0.0000000000
     30980      4672  TIP3      OH2             5.4942969964       55.9430861910       12.5375435764  TIP3      4536            0.0000000000
     30981      4672  TIP3      H1              4.6490610714       56.1811953502       12.9812475268  TIP3      4536            0.0000000000
     30982      4672  TIP3      H2              5.4247217215       56.4605575324       11.7168745230  TIP3      4536            0.0000000000
     30983      4673  TIP3      OH2            10.3635325224       55.5718886427       11.6552556889  TIP3      4537            0.0000000000
     30984      4673  TIP3      H1              9.6342675083       55.8727023887       11.0904741912  TIP3      4537            0.0000000000
     30985      4673  TIP3      H2             10.3895595207       56.2665094023       12.3512883432  TIP3      4537            0.0000000000
     30986      4674  TIP3      OH2            12.2888098095       54.2640803486       13.1536877633  TIP3      4538            0.0000000000
     30987      4674  TIP3      H1             11.6540230674       54.7356459509       12.5683602669  TIP3      4538            0.0000000000
     30988      4674  TIP3      H2             13.0665382009       54.8420608568       12.9921435023  TIP3      4538            0.0000000000
     30989      4675  TIP3      OH2            14.3958120241       55.7858199729       12.7401681002  TIP3      4539            0.0000000000
     30990      4675  TIP3      H1             14.5058817968       56.7025254781       12.4373552578  TIP3      4539            0.0000000000
     30991      4675  TIP3      H2             14.8251629993       55.3105649836       11.9943489455  TIP3      4539            0.0000000000
     30992      4676  TIP3      OH2             2.5923514293       54.7805068685       10.3138368927  TIP3      4540            0.0000000000
     30993      4676  TIP3      H1              2.4067223652       54.2437025169       11.0980166100  TIP3      4540            0.0000000000
     30994      4676  TIP3      H2              3.4744023789       54.4286543959       10.0303242048  TIP3      4540            0.0000000000
     30995      4677  TIP3      OH2             4.7900649551       53.7681829721        9.2670281714  TIP3      4541            0.0000000000
     30996      4677  TIP3      H1              4.5237219098       52.8427832651        9.4879682043  TIP3      4541            0.0000000000
     30997      4677  TIP3      H2              5.6366527847       53.8185091862        9.7654208225  TIP3      4541            0.0000000000
     30998      4678  TIP3      OH2             6.9632724610       53.5450017863       10.6605046691  TIP3      4542            0.0000000000
     30999      4678  TIP3      H1              7.3359000103       52.6735042995       10.4277584570  TIP3      4542            0.0000000000
     31000      4678  TIP3      H2              7.3506308807       53.7040085888       11.5439267547  TIP3      4542            0.0000000000
     31001      4679  TIP3      OH2             9.9589418695       39.0825368462        8.8436447738  TIP3      4543            0.0000000000
     31002      4679  TIP3      H1              9.2301072515       38.7123223477        9.3948161272  TIP3      4543            0.0000000000
     31003      4679  TIP3      H2             10.4869228844       38.3042267552        8.5961995264  TIP3      4543            0.0000000000
     31004      4680  TIP3      OH2            15.8648260462       38.1149437097        9.1489442087  TIP3      4544            0.0000000000
     31005      4680  TIP3      H1             16.4789907659       38.5694819879        8.5304169722  TIP3      4544            0.0000000000
     31006      4680  TIP3      H2             14.9866319848       38.2492720442        8.7169726345  TIP3      4544            0.0000000000
     31007      4681  TIP3      OH2            17.5197301744       39.0247276198        7.2010665640  TIP3      4545            0.0000000000
     31008      4681  TIP3      H1             18.2201122701       38.5009802559        6.7452483868  TIP3      4545            0.0000000000
     31009      4681  TIP3      H2             18.0396489501       39.8189035366        7.4757946399  TIP3      4545            0.0000000000
     31010      4682  TIP3      OH2             3.1565489821       37.9612380225        6.9714346384  TIP3      4546            0.0000000000
     31011      4682  TIP3      H1              2.3535526983       37.8721408701        6.4280757335  TIP3      4546            0.0000000000
     31012      4682  TIP3      H2              3.5635647089       37.0592028299        6.9310263679  TIP3      4546            0.0000000000
     31013      4683  TIP3      OH2             1.0189149545       37.9304221631        2.2699031469  TIP3      4547            0.0000000000
     31014      4683  TIP3      H1              1.5355424133       38.5976808704        1.7752269223  TIP3      4547            0.0000000000
     31015      4683  TIP3      H2              0.9403705500       38.3471100511        3.1480022561  TIP3      4547            0.0000000000
     31016      4684  TIP3      OH2             7.5135682313       37.9426610341        7.0043886909  TIP3      4548            0.0000000000
     31017      4684  TIP3      H1              8.3469973152       37.9950361830        6.5085626374  TIP3      4548            0.0000000000
     31018      4684  TIP3      H2              7.7727683527       38.1901080745        7.9033286471  TIP3      4548            0.0000000000
     31019      4685  TIP3      OH2            13.3656329511       38.6000489322        8.1549653585  TIP3      4549            0.0000000000
     31020      4685  TIP3      H1             13.0123287006       38.7230659709        7.2677760757  TIP3      4549            0.0000000000
     31021      4685  TIP3      H2             12.8558005371       37.8127515396        8.4605437990  TIP3      4549            0.0000000000
     31022      4686  TIP3      OH2            14.2883548254       38.3554256569        3.5420681807  TIP3      4550            0.0000000000
     31023      4686  TIP3      H1             13.7046461583       38.0452031479        2.8217377125  TIP3      4550            0.0000000000
     31024      4686  TIP3      H2             14.1168431475       37.6670941644        4.2157783926  TIP3      4550            0.0000000000
     31025      4687  TIP3      OH2             1.9648613368       54.1601054857        3.9898367987  TIP3      4551            0.0000000000
     31026      4687  TIP3      H1              2.0548331076       53.7329506885        3.1246479270  TIP3      4551            0.0000000000
     31027      4687  TIP3      H2              1.6105712164       55.0299607252        3.7278268245  TIP3      4551            0.0000000000
     31028      4688  TIP3      OH2             3.0969519283       39.6168398867        1.2032995104  TIP3      4552            0.0000000000
     31029      4688  TIP3      H1              4.0123940887       39.5686608223        0.8817550162  TIP3      4552            0.0000000000
     31030      4688  TIP3      H2              3.2232371758       40.2319444323        1.9395916111  TIP3      4552            0.0000000000
     31031      4689  TIP3      OH2             8.5338366863       40.7153984070        3.4955431570  TIP3      4553            0.0000000000
     31032      4689  TIP3      H1              9.0525342498       40.1533211256        4.0886100295  TIP3      4553            0.0000000000
     31033      4689  TIP3      H2              8.7361133314       41.5791367208        3.9029123035  TIP3      4553            0.0000000000
     31034      4690  TIP3      OH2            10.6515507013       56.1564444341        2.0003650690  TIP3      4554            0.0000000000
     31035      4690  TIP3      H1             11.4080578488       56.4525593320        1.4676841576  TIP3      4554            0.0000000000
     31036      4690  TIP3      H2             10.6916660980       55.1978037536        1.8004048074  TIP3      4554            0.0000000000
     31037      4691  TIP3      OH2            17.4080227089       54.5282156403        5.0258263880  TIP3      4555            0.0000000000
     31038      4691  TIP3      H1             16.9497878161       53.8055961774        4.5243696711  TIP3      4555            0.0000000000
     31039      4691  TIP3      H2             17.0978172820       55.2847931217        4.4849818881  TIP3      4555            0.0000000000
     31040      4692  TIP3      OH2             2.8162411448       38.9077251453       16.1402539808  TIP3      4556            0.0000000000
     31041      4692  TIP3      H1              2.2481296782       38.1531821992       16.3462978714  TIP3      4556            0.0000000000
     31042      4692  TIP3      H2              3.5362290450       38.7911125982       16.7933449114  TIP3      4556            0.0000000000
     31043      4693  TIP3      OH2             4.7652863180       38.5803798074       18.2429462982  TIP3      4557            0.0000000000
     31044      4693  TIP3      H1              5.5971033907       38.1103947012       18.0420867794  TIP3      4557            0.0000000000
     31045      4693  TIP3      H2              4.2957971947       37.9121100133       18.7850926283  TIP3      4557            0.0000000000
     31046      4694  TIP3      OH2             2.7886448547       54.7609181750        1.0712472179  TIP3      4558            0.0000000000
     31047      4694  TIP3      H1              2.1762161965       55.5145428355        1.0622179202  TIP3      4558            0.0000000000
     31048      4694  TIP3      H2              3.6528975487       55.1704162139        0.9472622199  TIP3      4558            0.0000000000
     31049      4695  TIP3      OH2            13.2731649315       37.7492320881       18.1079797917  TIP3      4559            0.0000000000
     31050      4695  TIP3      H1             12.9725922775       36.8326720802       17.9765709641  TIP3      4559            0.0000000000
     31051      4695  TIP3      H2             14.2317027013       37.6533506691       17.9086793202  TIP3      4559            0.0000000000
     31052      4696  TIP3      OH2            16.7980300970       53.4656830763       16.6119567490  TIP3      4560            0.0000000000
     31053      4696  TIP3      H1             16.1099186040       53.7220859946       15.9523957432  TIP3      4560            0.0000000000
     31054      4696  TIP3      H2             16.7924321646       54.2342076054       17.2054988145  TIP3      4560            0.0000000000
     31055      4697  TIP3      OH2            31.1999637596       47.6871083264        6.8292750394  TIP3      4561            0.0000000000
     31056      4697  TIP3      H1             30.9707243496       48.6429231963        6.8031403785  TIP3      4561            0.0000000000
     31057      4697  TIP3      H2             30.4057386903       47.2824987523        6.4549407332  TIP3      4561            0.0000000000
     31058      4698  TIP3      OH2            29.7805707876       46.1257983621       10.0016280120  TIP3      4562            0.0000000000
     31059      4698  TIP3      H1             29.6788963551       45.9032937872       10.9487550041  TIP3      4562            0.0000000000
     31060      4698  TIP3      H2             28.8777671861       46.1475678715        9.6648034905  TIP3      4562            0.0000000000
     31061      4699  TIP3      OH2            21.9964387051       46.4504838590       11.5914394349  TIP3      4563            0.0000000000
     31062      4699  TIP3      H1             21.7833637377       45.6358703038       12.0667093396  TIP3      4563            0.0000000000
     31063      4699  TIP3      H2             22.9348464569       46.5429902231       11.8350933819  TIP3      4563            0.0000000000
     31064      4700  TIP3      OH2            32.9880612556       49.5506085429        8.7171277116  TIP3      4564            0.0000000000
     31065      4700  TIP3      H1             32.7714479558       48.8771229132        9.3796167780  TIP3      4564            0.0000000000
     31066      4700  TIP3      H2             33.4760763634       50.2062643908        9.2470900290  TIP3      4564            0.0000000000
     31067      4701  TIP3      OH2            23.3512320080       50.8447787514       10.2952284002  TIP3      4565            0.0000000000
     31068      4701  TIP3      H1             23.0216326262       50.0908926954        9.7613970800  TIP3      4565            0.0000000000
     31069      4701  TIP3      H2             24.2950195818       50.8555773708       10.0257897531  TIP3      4565            0.0000000000
     31070      4702  TIP3      OH2            19.9404943243       44.3467729128        5.6353527274  TIP3      4566            0.0000000000
     31071      4702  TIP3      H1             19.5545244775       45.0879156887        6.1267876506  TIP3      4566            0.0000000000
     31072      4702  TIP3      H2             19.4719888800       44.4723051856        4.7905578779  TIP3      4566            0.0000000000
     31073      4703  TIP3      OH2            19.7939683513       46.3942572058        8.2693279541  TIP3      4567            0.0000000000
     31074      4703  TIP3      H1             20.0987157057       45.4622537372        8.3614579221  TIP3      4567            0.0000000000
     31075      4703  TIP3      H2             20.6121622142       46.8511167583        8.0348305253  TIP3      4567            0.0000000000
     31076      4704  TIP3      OH2            30.5939666043       55.0505882838        8.5951910471  TIP3      4568            0.0000000000
     31077      4704  TIP3      H1             31.2155104972       54.5203822946        8.0440464487  TIP3      4568            0.0000000000
     31078      4704  TIP3      H2             30.2728466905       54.3366326991        9.1607490315  TIP3      4568            0.0000000000
     31079      4705  TIP3      OH2            27.8021772848       49.5093327846       11.2642946194  TIP3      4569            0.0000000000
     31080      4705  TIP3      H1             28.2274510070       49.1875372980       10.4581353681  TIP3      4569            0.0000000000
     31081      4705  TIP3      H2             28.5967134008       49.6813912399       11.8222003433  TIP3      4569            0.0000000000
     31082      4706  TIP3      OH2            36.6197885489       40.7712711718       11.1924817540  TIP3      4570            0.0000000000
     31083      4706  TIP3      H1             36.6363277654       41.3051285925       12.0137506630  TIP3      4570            0.0000000000
     31084      4706  TIP3      H2             37.5097323742       40.9649343059       10.8602300967  TIP3      4570            0.0000000000
     31085      4707  TIP3      OH2            31.6219844457       43.7001049066       11.3634328857  TIP3      4571            0.0000000000
     31086      4707  TIP3      H1             31.8962679666       42.8373115682       11.7140019621  TIP3      4571            0.0000000000
     31087      4707  TIP3      H2             31.5934701354       43.5141131717       10.4055498979  TIP3      4571            0.0000000000
     31088      4708  TIP3      OH2            24.5632965859       41.1978985387        7.9949816287  TIP3      4572            0.0000000000
     31089      4708  TIP3      H1             24.6645169650       42.1044464440        7.6263569714  TIP3      4572            0.0000000000
     31090      4708  TIP3      H2             24.0634307430       40.7779191999        7.2651255552  TIP3      4572            0.0000000000
     31091      4709  TIP3      OH2            32.1942749367       41.7711710889        6.5918093807  TIP3      4573            0.0000000000
     31092      4709  TIP3      H1             32.6777628637       41.4766131715        7.3991440235  TIP3      4573            0.0000000000
     31093      4709  TIP3      H2             32.5832707116       42.6435681741        6.4552544082  TIP3      4573            0.0000000000
     31094      4710  TIP3      OH2            20.9392023868       44.0079828133        8.8753108935  TIP3      4574            0.0000000000
     31095      4710  TIP3      H1             21.5828954179       43.6771029655        9.5324756262  TIP3      4574            0.0000000000
     31096      4710  TIP3      H2             21.3712246771       43.6546174872        8.0606328606  TIP3      4574            0.0000000000
     31097      4711  TIP3      OH2            25.7453680057       45.6514072589        8.0684979086  TIP3      4575            0.0000000000
     31098      4711  TIP3      H1             26.5569865859       45.1469748405        8.2662407984  TIP3      4575            0.0000000000
     31099      4711  TIP3      H2             25.2471199219       44.9787249490        7.5403995942  TIP3      4575            0.0000000000
     31100      4712  TIP3      OH2            36.7588419773       41.9210299172       13.7637198781  TIP3      4576            0.0000000000
     31101      4712  TIP3      H1             36.5113869838       42.8445805758       13.5160222327  TIP3      4576            0.0000000000
     31102      4712  TIP3      H2             37.3087073264       42.0948353280       14.5396425657  TIP3      4576            0.0000000000
     31103      4713  TIP3      OH2            23.6049526137       40.7365925906       12.1463114176  TIP3      4577            0.0000000000
     31104      4713  TIP3      H1             23.1383959232       41.2422242453       11.4514140600  TIP3      4577            0.0000000000
     31105      4713  TIP3      H2             23.0274298212       40.9402628658       12.8981879251  TIP3      4577            0.0000000000
     31106      4714  TIP3      OH2            30.3270042077       50.0771242124        5.8534367372  TIP3      4578            0.0000000000
     31107      4714  TIP3      H1             30.2021189371       50.0943817351        4.8887825323  TIP3      4578            0.0000000000
     31108      4714  TIP3      H2             29.8140873187       50.8814645947        6.0939065433  TIP3      4578            0.0000000000
     31109      4715  TIP3      OH2            25.5291081731       48.2691331102       12.0949937933  TIP3      4579            0.0000000000
     31110      4715  TIP3      H1             24.8998115029       48.9380359578       12.4456149746  TIP3      4579            0.0000000000
     31111      4715  TIP3      H2             26.2532484366       48.8591754685       11.7767267387  TIP3      4579            0.0000000000
     31112      4716  TIP3      OH2            33.8861181338       41.3742240472        8.7084766033  TIP3      4580            0.0000000000
     31113      4716  TIP3      H1             33.5273248836       41.0904676016        9.5611252574  TIP3      4580            0.0000000000
     31114      4716  TIP3      H2             34.8171402804       41.5452522383        8.9254404384  TIP3      4580            0.0000000000
     31115      4717  TIP3      OH2            22.8751838690       42.5150000577       10.0935687195  TIP3      4581            0.0000000000
     31116      4717  TIP3      H1             23.5451114941       43.1082461058       10.5137698444  TIP3      4581            0.0000000000
     31117      4717  TIP3      H2             23.3946980146       42.1138601122        9.3647998726  TIP3      4581            0.0000000000
     31118      4718  TIP3      OH2            24.3949060247       50.5238045140       13.1136314100  TIP3      4582            0.0000000000
     31119      4718  TIP3      H1             24.0727470031       51.0010053356       12.3286194427  TIP3      4582            0.0000000000
     31120      4718  TIP3      H2             23.5393594308       50.4421999732       13.6066895829  TIP3      4582            0.0000000000
     31121      4719  TIP3      OH2            20.1536509071       49.9212476971        3.9690994254  TIP3      4583            0.0000000000
     31122      4719  TIP3      H1             20.1155576386       50.2694714507        3.0522573187  TIP3      4583            0.0000000000
     31123      4719  TIP3      H2             20.4020929491       50.6987938994        4.4789429794  TIP3      4583            0.0000000000
     31124      4720  TIP3      OH2            33.9934013816       51.5494378501       10.4582801786  TIP3      4584            0.0000000000
     31125      4720  TIP3      H1             33.0543958063       51.7552327713       10.6842520103  TIP3      4584            0.0000000000
     31126      4720  TIP3      H2             34.2665534404       52.3972275201       10.0886490429  TIP3      4584            0.0000000000
     31127      4721  TIP3      OH2            33.9658175864       39.8136485746       12.0431646764  TIP3      4585            0.0000000000
     31128      4721  TIP3      H1             33.1791056519       39.9854244836       11.4922423832  TIP3      4585            0.0000000000
     31129      4721  TIP3      H2             34.6355292583       40.3819474002       11.6250356107  TIP3      4585            0.0000000000
     31130      4722  TIP3      OH2            26.7835511442       37.9784290737        9.6911728908  TIP3      4586            0.0000000000
     31131      4722  TIP3      H1             26.4848098474       37.0768939630        9.4959903370  TIP3      4586            0.0000000000
     31132      4722  TIP3      H2             25.9155041425       38.4055648935        9.9305326747  TIP3      4586            0.0000000000
     31133      4723  TIP3      OH2            32.2964561361       53.5800747415        7.0522863646  TIP3      4587            0.0000000000
     31134      4723  TIP3      H1             32.6249184023       52.6971809870        6.7707774749  TIP3      4587            0.0000000000
     31135      4723  TIP3      H2             33.1113930514       54.1271306060        6.9420844652  TIP3      4587            0.0000000000
     31136      4724  TIP3      OH2            33.3806933200       51.2387916633        5.9896570124  TIP3      4588            0.0000000000
     31137      4724  TIP3      H1             33.3522965082       50.6647150906        5.1974545671  TIP3      4588            0.0000000000
     31138      4724  TIP3      H2             33.1290117129       50.5935465962        6.6678711104  TIP3      4588            0.0000000000
     31139      4725  TIP3      OH2            34.9017717742       50.0267839242       14.4337370314  TIP3      4589            0.0000000000
     31140      4725  TIP3      H1             35.1562537285       49.3189061965       13.7997417080  TIP3      4589            0.0000000000
     31141      4725  TIP3      H2             35.0760225492       50.8204761349       13.8915920670  TIP3      4589            0.0000000000
     31142      4726  TIP3      OH2            29.5893833940       46.9586199501        4.1723481519  TIP3      4590            0.0000000000
     31143      4726  TIP3      H1             28.8696660236       47.6042788484        3.9771268488  TIP3      4590            0.0000000000
     31144      4726  TIP3      H2             30.3978187640       47.4813138953        4.0024380593  TIP3      4590            0.0000000000
     31145      4727  TIP3      OH2            29.3294870582       46.0566897702        1.5183843705  TIP3      4591            0.0000000000
     31146      4727  TIP3      H1             29.7601270263       46.2002719820        2.3872884370  TIP3      4591            0.0000000000
     31147      4727  TIP3      H2             30.0270964988       45.6033609838        1.0202766113  TIP3      4591            0.0000000000
     31148      4728  TIP3      OH2            36.9283691759       46.3097135100       12.3574537904  TIP3      4592            0.0000000000
     31149      4728  TIP3      H1             36.3422918616       47.0921419965       12.3751732177  TIP3      4592            0.0000000000
     31150      4728  TIP3      H2             37.5864823694       46.6161036787       11.7050112185  TIP3      4592            0.0000000000
     31151      4729  TIP3      OH2            33.5397498107       47.2597719845        5.5489472386  TIP3      4593            0.0000000000
     31152      4729  TIP3      H1             32.7141527278       47.3933581705        6.0758263102  TIP3      4593            0.0000000000
     31153      4729  TIP3      H2             33.9845292874       46.5629055295        6.0911741562  TIP3      4593            0.0000000000
     31154      4730  TIP3      OH2            33.1728052334       45.3132968292       14.2101961079  TIP3      4594            0.0000000000
     31155      4730  TIP3      H1             33.2099481892       46.0613845598       14.8252657397  TIP3      4594            0.0000000000
     31156      4730  TIP3      H2             32.4624311509       45.6086112900       13.6210855779  TIP3      4594            0.0000000000
     31157      4731  TIP3      OH2            24.2844220082       47.4956530267        6.9280353530  TIP3      4595            0.0000000000
     31158      4731  TIP3      H1             24.2535853948       47.1922795421        5.9971251485  TIP3      4595            0.0000000000
     31159      4731  TIP3      H2             24.8347244508       46.7972528863        7.3398213005  TIP3      4595            0.0000000000
     31160      4732  TIP3      OH2            26.0403060317       50.9602496579        9.9301806150  TIP3      4596            0.0000000000
     31161      4732  TIP3      H1             26.1949687067       50.7181152513        9.0032351290  TIP3      4596            0.0000000000
     31162      4732  TIP3      H2             26.7050308896       50.4353538233       10.4249570682  TIP3      4596            0.0000000000
     31163      4733  TIP3      OH2            24.9221505646       46.1599744292       10.6932624887  TIP3      4597            0.0000000000
     31164      4733  TIP3      H1             25.1670343841       46.4143434250        9.7792768808  TIP3      4597            0.0000000000
     31165      4733  TIP3      H2             25.2867621178       46.8871473762       11.2548303587  TIP3      4597            0.0000000000
     31166      4734  TIP3      OH2            31.5622099668       51.9879502725       11.4144860560  TIP3      4598            0.0000000000
     31167      4734  TIP3      H1             31.0632209062       52.6542670015       11.9146769102  TIP3      4598            0.0000000000
     31168      4734  TIP3      H2             31.2813162568       51.1484118610       11.8221066076  TIP3      4598            0.0000000000
     31169      4735  TIP3      OH2            26.0590062585       50.7351163986       15.3765115182  TIP3      4599            0.0000000000
     31170      4735  TIP3      H1             25.3231145739       51.2580415964       15.7781743781  TIP3      4599            0.0000000000
     31171      4735  TIP3      H2             25.6309620967       50.5198386434       14.5224237624  TIP3      4599            0.0000000000
     31172      4736  TIP3      OH2            32.0906741155       46.7231307320        3.2060185309  TIP3      4600            0.0000000000
     31173      4736  TIP3      H1             32.7313603374       46.8677365520        3.9284356764  TIP3      4600            0.0000000000
     31174      4736  TIP3      H2             32.5622455119       47.0837807203        2.4178916111  TIP3      4600            0.0000000000
     31175      4737  TIP3      OH2            23.1231391725       46.6915456862       14.9006853984  TIP3      4601            0.0000000000
     31176      4737  TIP3      H1             23.1773375670       47.4234044482       15.5311115294  TIP3      4601            0.0000000000
     31177      4737  TIP3      H2             22.1610398389       46.5051453727       14.9562045357  TIP3      4601            0.0000000000
     31178      4738  TIP3      OH2            29.1337726000       52.4641453693        6.5188646622  TIP3      4602            0.0000000000
     31179      4738  TIP3      H1             29.7908476932       52.8955134185        7.0749631561  TIP3      4602            0.0000000000
     31180      4738  TIP3      H2             28.9262845275       53.1465375120        5.8622477027  TIP3      4602            0.0000000000
     31181      4739  TIP3      OH2            24.2432252400       52.4329265627       16.2223684300  TIP3      4603            0.0000000000
     31182      4739  TIP3      H1             24.0808846402       52.9011075673       15.3688742734  TIP3      4603            0.0000000000
     31183      4739  TIP3      H2             23.3320234152       52.1745584667       16.4711168837  TIP3      4603            0.0000000000
     31184      4740  TIP3      OH2            35.9335010762       37.8068068096        3.4423179977  TIP3      4604            0.0000000000
     31185      4740  TIP3      H1             34.9640587008       37.9729490462        3.5409244943  TIP3      4604            0.0000000000
     31186      4740  TIP3      H2             36.1947652286       38.6168020932        2.9694637791  TIP3      4604            0.0000000000
     31187      4741  TIP3      OH2            23.4273119687       46.5040168311        4.3668752343  TIP3      4605            0.0000000000
     31188      4741  TIP3      H1             23.0792874544       47.3160869662        3.9260640341  TIP3      4605            0.0000000000
     31189      4741  TIP3      H2             22.8155066838       45.8372946727        4.0374352344  TIP3      4605            0.0000000000
     31190      4742  TIP3      OH2            36.5921566441       51.9518187528        0.9685528611  TIP3      4606            0.0000000000
     31191      4742  TIP3      H1             37.0157390909       52.6467027609        0.4442589814  TIP3      4606            0.0000000000
     31192      4742  TIP3      H2             37.3979674289       51.5486497532        1.3523841110  TIP3      4606            0.0000000000
     31193      4743  TIP3      OH2            19.9008845982       49.3356008283       13.5639857329  TIP3      4607            0.0000000000
     31194      4743  TIP3      H1             19.4111578546       49.4739118277       12.7416689231  TIP3      4607            0.0000000000
     31195      4743  TIP3      H2             20.3348709232       48.4760573417       13.3873606791  TIP3      4607            0.0000000000
     31196      4744  TIP3      OH2            19.6295863601       51.8368934030       10.4114758137  TIP3      4608            0.0000000000
     31197      4744  TIP3      H1             20.5794085411       51.6674110500       10.5036770375  TIP3      4608            0.0000000000
     31198      4744  TIP3      H2             19.5782052847       52.7652945554       10.6893245531  TIP3      4608            0.0000000000
     31199      4745  TIP3      OH2            37.6687854102       52.5214767945       15.9190551081  TIP3      4609            0.0000000000
     31200      4745  TIP3      H1             37.4794835089       51.6041396081       15.6737871494  TIP3      4609            0.0000000000
     31201      4745  TIP3      H2             36.8564399168       52.7139895135       16.4428574456  TIP3      4609            0.0000000000
     31202      4746  TIP3      OH2            28.5642878957       51.9075029200       15.3050798448  TIP3      4610            0.0000000000
     31203      4746  TIP3      H1             28.6233794811       52.7499494734       15.7961911605  TIP3      4610            0.0000000000
     31204      4746  TIP3      H2             27.6122227090       51.6588613590       15.3472032693  TIP3      4610            0.0000000000
     31205      4747  TIP3      OH2            28.9628531001       55.7499224172        4.4795998920  TIP3      4611            0.0000000000
     31206      4747  TIP3      H1             28.9404664493       55.9402813618        3.5214741731  TIP3      4611            0.0000000000
     31207      4747  TIP3      H2             29.2019316471       56.6365292224        4.8332147934  TIP3      4611            0.0000000000
     31208      4748  TIP3      OH2            23.1436061437       54.4503705825        6.8076083400  TIP3      4612            0.0000000000
     31209      4748  TIP3      H1             23.1691725515       53.9917513829        7.6841618688  TIP3      4612            0.0000000000
     31210      4748  TIP3      H2             22.4883919566       53.8573201403        6.3584012343  TIP3      4612            0.0000000000
     31211      4749  TIP3      OH2            32.3772872978       55.0780515584        1.6892073324  TIP3      4613            0.0000000000
     31212      4749  TIP3      H1             32.8640768517       54.2655441464        1.4587318579  TIP3      4613            0.0000000000
     31213      4749  TIP3      H2             32.2380429273       54.9608081402        2.6532167180  TIP3      4613            0.0000000000
     31214      4750  TIP3      OH2            31.7489700550       55.0132716455        4.4030439781  TIP3      4614            0.0000000000
     31215      4750  TIP3      H1             30.7860689829       55.1849724056        4.5115440943  TIP3      4614            0.0000000000
     31216      4750  TIP3      H2             31.8970693221       54.3092161671        5.0520152848  TIP3      4614            0.0000000000
     31217      4751  TIP3      OH2            34.0897714438       43.4428474376       16.8163653443  TIP3      4615            0.0000000000
     31218      4751  TIP3      H1             33.8799052266       43.8343641171       15.9513332430  TIP3      4615            0.0000000000
     31219      4751  TIP3      H2             34.1965637710       42.4988272153       16.5925901729  TIP3      4615            0.0000000000
     31220      4752  TIP3      OH2            22.1086924126       50.5520879886       14.4532919040  TIP3      4616            0.0000000000
     31221      4752  TIP3      H1             22.2421656328       50.3207499023       15.4028138642  TIP3      4616            0.0000000000
     31222      4752  TIP3      H2             21.2289338707       50.1333359491       14.3039294944  TIP3      4616            0.0000000000
     31223      4753  TIP3      OH2            24.5284879117       38.9566085717       10.4488046232  TIP3      4617            0.0000000000
     31224      4753  TIP3      H1             23.6173571721       39.0075906735       10.1038722726  TIP3      4617            0.0000000000
     31225      4753  TIP3      H2             24.4624030381       39.5823401211       11.2001652145  TIP3      4617            0.0000000000
     31226      4754  TIP3      OH2            29.5914110030       38.4932765969       13.6378709647  TIP3      4618            0.0000000000
     31227      4754  TIP3      H1             29.8379873262       37.8818874472       14.3610975233  TIP3      4618            0.0000000000
     31228      4754  TIP3      H2             28.6057263096       38.5051284446       13.6639784673  TIP3      4618            0.0000000000
     31229      4755  TIP3      OH2            32.5746890342       42.5223222205       14.4360707397  TIP3      4619            0.0000000000
     31230      4755  TIP3      H1             31.9293282293       42.5213510509       15.1721466695  TIP3      4619            0.0000000000
     31231      4755  TIP3      H2             32.4416745504       43.3847586983       14.0053476056  TIP3      4619            0.0000000000
     31232      4756  TIP3      OH2            33.3759995170       47.5286719573        1.0537273402  TIP3      4620            0.0000000000
     31233      4756  TIP3      H1             33.3444875763       47.5052915889        0.0890087814  TIP3      4620            0.0000000000
     31234      4756  TIP3      H2             34.2325047702       47.9629891052        1.2112301129  TIP3      4620            0.0000000000
     31235      4757  TIP3      OH2            29.0822810140       41.7787470849        1.4688958764  TIP3      4621            0.0000000000
     31236      4757  TIP3      H1             28.9726681262       42.3153810919        2.2764242047  TIP3      4621            0.0000000000
     31237      4757  TIP3      H2             28.6244866450       40.9664790640        1.7639062729  TIP3      4621            0.0000000000
     31238      4758  TIP3      OH2            24.9348140332       43.6359283320       11.5592141832  TIP3      4622            0.0000000000
     31239      4758  TIP3      H1             24.2949571809       43.8055523712       12.2875130285  TIP3      4622            0.0000000000
     31240      4758  TIP3      H2             24.9824960466       44.5470735657       11.1898299320  TIP3      4622            0.0000000000
     31241      4759  TIP3      OH2            24.5459695426       43.6012546318        6.8908534025  TIP3      4623            0.0000000000
     31242      4759  TIP3      H1             23.6023886848       43.4172997474        6.6710857061  TIP3      4623            0.0000000000
     31243      4759  TIP3      H2             24.9797705267       43.3514616494        6.0505390005  TIP3      4623            0.0000000000
     31244      4760  TIP3      OH2            30.2828023408       44.6324017216        5.3142756458  TIP3      4624            0.0000000000
     31245      4760  TIP3      H1             30.1200767561       45.5227105791        4.9211478297  TIP3      4624            0.0000000000
     31246      4760  TIP3      H2             30.9806232968       44.3211280875        4.6974008826  TIP3      4624            0.0000000000
     31247      4761  TIP3      OH2            29.1302309313       45.0653897739       17.1101808943  TIP3      4625            0.0000000000
     31248      4761  TIP3      H1             28.7012531885       44.2025652420       17.3072048574  TIP3      4625            0.0000000000
     31249      4761  TIP3      H2             29.9953660283       44.9618238184       17.5456538003  TIP3      4625            0.0000000000
     31250      4762  TIP3      OH2            31.6173599585       44.0993420331        8.4568458375  TIP3      4626            0.0000000000
     31251      4762  TIP3      H1             31.4408807589       44.9821218433        8.0755911912  TIP3      4626            0.0000000000
     31252      4762  TIP3      H2             31.0763714120       43.5610326579        7.8652205127  TIP3      4626            0.0000000000
     31253      4763  TIP3      OH2            22.4134854949       43.8657856135       12.9335222162  TIP3      4627            0.0000000000
     31254      4763  TIP3      H1             22.7475214508       44.3703828415       13.6936500243  TIP3      4627            0.0000000000
     31255      4763  TIP3      H2             22.0079263944       43.0845433562       13.3718322336  TIP3      4627            0.0000000000
     31256      4764  TIP3      OH2            25.7324672732       41.6722112595        0.7562203840  TIP3      4628            0.0000000000
     31257      4764  TIP3      H1             25.1853514521       41.1193126682        1.3549999336  TIP3      4628            0.0000000000
     31258      4764  TIP3      H2             25.3879926089       42.5683239763        0.9976046727  TIP3      4628            0.0000000000
     31259      4765  TIP3      OH2            19.0652078136       41.2545460344        7.5407624226  TIP3      4629            0.0000000000
     31260      4765  TIP3      H1             19.8053393469       41.1606482139        8.1573966617  TIP3      4629            0.0000000000
     31261      4765  TIP3      H2             19.3343284189       41.9788875288        6.9655029229  TIP3      4629            0.0000000000
     31262      4766  TIP3      OH2            20.0313451939       41.8379045050        2.7237260494  TIP3      4630            0.0000000000
     31263      4766  TIP3      H1             20.6121802852       42.3198017126        2.1112873470  TIP3      4630            0.0000000000
     31264      4766  TIP3      H2             19.5054974090       42.6224713089        2.9955644815  TIP3      4630            0.0000000000
     31265      4767  TIP3      OH2            30.2346063766       45.6717985910       12.7241861721  TIP3      4631            0.0000000000
     31266      4767  TIP3      H1             30.8640421326       45.0522935942       12.2860464980  TIP3      4631            0.0000000000
     31267      4767  TIP3      H2             29.7864166394       45.0698755496       13.3641546690  TIP3      4631            0.0000000000
     31268      4768  TIP3      OH2            27.7145587262       41.2783365177        7.1364268451  TIP3      4632            0.0000000000
     31269      4768  TIP3      H1             26.7906899675       41.1379708093        7.4028002526  TIP3      4632            0.0000000000
     31270      4768  TIP3      H2             28.1993539352       41.0138641087        7.9454811121  TIP3      4632            0.0000000000
     31271      4769  TIP3      OH2            21.9341597730       42.8250220413        6.6969623087  TIP3      4633            0.0000000000
     31272      4769  TIP3      H1             21.3694152413       43.3341801327        6.0736457176  TIP3      4633            0.0000000000
     31273      4769  TIP3      H2             21.9703882591       41.9343231464        6.2758506823  TIP3      4633            0.0000000000
     31274      4770  TIP3      OH2            25.2612010070       43.0162335517        4.1389554333  TIP3      4634            0.0000000000
     31275      4770  TIP3      H1             26.1847632364       43.2595911897        4.3481992367  TIP3      4634            0.0000000000
     31276      4770  TIP3      H2             25.0675446152       43.5717671081        3.3458671536  TIP3      4634            0.0000000000
     31277      4771  TIP3      OH2            31.7660795491       40.5844800348       10.7142452846  TIP3      4635            0.0000000000
     31278      4771  TIP3      H1             30.8493630266       40.6474104245       11.0314685831  TIP3      4635            0.0000000000
     31279      4771  TIP3      H2             31.6538031050       40.0161592700        9.9306469787  TIP3      4635            0.0000000000
     31280      4772  TIP3      OH2            24.8931515587       44.1099075963        1.6385015445  TIP3      4636            0.0000000000
     31281      4772  TIP3      H1             24.2187657457       44.3768991015        0.9706040493  TIP3      4636            0.0000000000
     31282      4772  TIP3      H2             25.6675622064       44.5793720689        1.2497613029  TIP3      4636            0.0000000000
     31283      4773  TIP3      OH2            34.8069251704       56.2522498272       17.3350849657  TIP3      4637            0.0000000000
     31284      4773  TIP3      H1             35.2673229311       56.5107144011       16.5134539985  TIP3      4637            0.0000000000
     31285      4773  TIP3      H2             35.3095023492       56.7618556134       17.9862325260  TIP3      4637            0.0000000000
     31286      4774  TIP3      OH2            22.3345635598       48.9588407786       16.6998913234  TIP3      4638            0.0000000000
     31287      4774  TIP3      H1             23.1312895632       49.1445053036       17.2290116013  TIP3      4638            0.0000000000
     31288      4774  TIP3      H2             21.7209048979       48.6286467466       17.3763353590  TIP3      4638            0.0000000000
     31289      4775  TIP3      OH2            28.0067894578       44.0230174199        8.8596036833  TIP3      4639            0.0000000000
     31290      4775  TIP3      H1             28.9155205481       44.0284569521        9.2063101651  TIP3      4639            0.0000000000
     31291      4775  TIP3      H2             27.5532551826       43.3673579028        9.4056658893  TIP3      4639            0.0000000000
     31292      4776  TIP3      OH2            23.0327222005       40.3797328571        5.9531039485  TIP3      4640            0.0000000000
     31293      4776  TIP3      H1             22.5960859919       39.6184694007        6.4126943066  TIP3      4640            0.0000000000
     31294      4776  TIP3      H2             23.4470832411       39.9598041344        5.1847471407  TIP3      4640            0.0000000000
     31295      4777  TIP3      OH2            27.3183375744       42.4795290067       12.1001208861  TIP3      4641            0.0000000000
     31296      4777  TIP3      H1             26.5322095992       43.0026132322       11.8423882035  TIP3      4641            0.0000000000
     31297      4777  TIP3      H2             27.9525128087       43.1414988934       12.3992225612  TIP3      4641            0.0000000000
     31298      4778  TIP3      OH2            27.7293225221       48.8648591231        3.9362718613  TIP3      4642            0.0000000000
     31299      4778  TIP3      H1             26.9772667307       48.3922152887        3.5203676603  TIP3      4642            0.0000000000
     31300      4778  TIP3      H2             27.3126104831       49.1440997257        4.7857365640  TIP3      4642            0.0000000000
     31301      4779  TIP3      OH2            35.1867175038       48.3340435472       12.4760779061  TIP3      4643            0.0000000000
     31302      4779  TIP3      H1             35.6892442147       48.8603290677       11.8131832086  TIP3      4643            0.0000000000
     31303      4779  TIP3      H2             34.3072089385       48.3236214202       12.0617400438  TIP3      4643            0.0000000000
     31304      4780  TIP3      OH2            31.8273986883       41.8161271443        2.0408590993  TIP3      4644            0.0000000000
     31305      4780  TIP3      H1             30.9745536960       41.9981697866        1.6205154793  TIP3      4644            0.0000000000
     31306      4780  TIP3      H2             32.0039921847       42.6739816128        2.4778599991  TIP3      4644            0.0000000000
     31307      4781  TIP3      OH2            28.9561907392       49.2567081180       15.0408402757  TIP3      4645            0.0000000000
     31308      4781  TIP3      H1             28.5462195220       49.0199839950       15.8883675066  TIP3      4645            0.0000000000
     31309      4781  TIP3      H2             28.8241145396       50.2269536780       15.0430181790  TIP3      4645            0.0000000000
     31310      4782  TIP3      OH2            32.2955962602       44.0352760524        3.5759273168  TIP3      4646            0.0000000000
     31311      4782  TIP3      H1             32.9232588178       43.6556957499        4.2253976162  TIP3      4646            0.0000000000
     31312      4782  TIP3      H2             32.8060271986       44.7988459954        3.2559618429  TIP3      4646            0.0000000000
     31313      4783  TIP3      OH2            22.8577895134       48.4128526915        9.1079376288  TIP3      4647            0.0000000000
     31314      4783  TIP3      H1             23.1831823361       48.0915321302        8.2363006526  TIP3      4647            0.0000000000
     31315      4783  TIP3      H2             23.1762228065       47.7406034768        9.7267703851  TIP3      4647            0.0000000000
     31316      4784  TIP3      OH2            29.8289112892       50.1615932939        2.7710607975  TIP3      4648            0.0000000000
     31317      4784  TIP3      H1             29.4544391409       51.0537511397        2.9620839365  TIP3      4648            0.0000000000
     31318      4784  TIP3      H2             29.1016187938       49.5744651365        3.0623226009  TIP3      4648            0.0000000000
     31319      4785  TIP3      OH2            20.4200500902       46.2484897817       14.5098900192  TIP3      4649            0.0000000000
     31320      4785  TIP3      H1             20.0961988831       45.8175966670       15.3199744455  TIP3      4649            0.0000000000
     31321      4785  TIP3      H2             19.6551727003       46.1279515936       13.9194102724  TIP3      4649            0.0000000000
     31322      4786  TIP3      OH2            26.6286956686       46.2365640463       16.6967387869  TIP3      4650            0.0000000000
     31323      4786  TIP3      H1             26.3913888704       45.6790835667       15.9503157182  TIP3      4650            0.0000000000
     31324      4786  TIP3      H2             27.5219204772       45.8843050475       16.9087490754  TIP3      4650            0.0000000000
     31325      4787  TIP3      OH2            31.7986452255       51.6407449949       14.9307645404  TIP3      4651            0.0000000000
     31326      4787  TIP3      H1             30.9785541413       51.5943528316       14.4317683365  TIP3      4651            0.0000000000
     31327      4787  TIP3      H2             31.5108217687       52.2252351589       15.6574537251  TIP3      4651            0.0000000000
     31328      4788  TIP3      OH2            37.2058793632       43.6737884993        3.2819324074  TIP3      4652            0.0000000000
     31329      4788  TIP3      H1             36.6160528199       43.5105647544        2.5264450226  TIP3      4652            0.0000000000
     31330      4788  TIP3      H2             37.2436815366       44.6485323280        3.2514472787  TIP3      4652            0.0000000000
     31331      4789  TIP3      OH2            37.3475861259       49.5473238306       15.7071461962  TIP3      4653            0.0000000000
     31332      4789  TIP3      H1             36.4019438121       49.6538855715       15.4598684110  TIP3      4653            0.0000000000
     31333      4789  TIP3      H2             37.7779885142       49.4540910107       14.8235787504  TIP3      4653            0.0000000000
     31334      4790  TIP3      OH2            35.2715847344       52.6015584359        3.4088051948  TIP3      4654            0.0000000000
     31335      4790  TIP3      H1             35.0748070608       51.7163118861        3.7424802968  TIP3      4654            0.0000000000
     31336      4790  TIP3      H2             35.7201506834       52.4398878033        2.5561932762  TIP3      4654            0.0000000000
     31337      4791  TIP3      OH2            32.6907268955       47.4647206202       10.7117428530  TIP3      4655            0.0000000000
     31338      4791  TIP3      H1             31.8390574407       47.1330844165       10.3783010334  TIP3      4655            0.0000000000
     31339      4791  TIP3      H2             33.3109095474       46.7710935617       10.3899646209  TIP3      4655            0.0000000000
     31340      4792  TIP3      OH2            24.9633443775       51.5944353948        7.1564412700  TIP3      4656            0.0000000000
     31341      4792  TIP3      H1             25.6420921055       52.2507561772        6.9144733118  TIP3      4656            0.0000000000
     31342      4792  TIP3      H2             24.3071670780       51.6944603749        6.4497366510  TIP3      4656            0.0000000000
     31343      4793  TIP3      OH2            20.0568857167       47.5328789509        0.6923239304  TIP3      4657            0.0000000000
     31344      4793  TIP3      H1             20.8517645701       48.0935730169        0.5776729567  TIP3      4657            0.0000000000
     31345      4793  TIP3      H2             20.4264291830       46.7588944241        1.1552626439  TIP3      4657            0.0000000000
     31346      4794  TIP3      OH2            26.4215228858       49.4191460876        6.2745733520  TIP3      4658            0.0000000000
     31347      4794  TIP3      H1             25.8911998097       50.1669873379        6.6289501538  TIP3      4658            0.0000000000
     31348      4794  TIP3      H2             26.1066475725       48.6793442426        6.8111846823  TIP3      4658            0.0000000000
     31349      4795  TIP3      OH2            27.3253225718       53.6836826756       13.4394439197  TIP3      4659            0.0000000000
     31350      4795  TIP3      H1             28.0237131369       54.1638082021       12.9475266992  TIP3      4659            0.0000000000
     31351      4795  TIP3      H2             27.8355636870       53.3344846256       14.1872794342  TIP3      4659            0.0000000000
     31352      4796  TIP3      OH2            25.6331735170       54.1900597445        5.7940430688  TIP3      4660            0.0000000000
     31353      4796  TIP3      H1             24.6910939199       54.2524090634        6.0598339662  TIP3      4660            0.0000000000
     31354      4796  TIP3      H2             25.9850672106       55.0385670843        6.1123805191  TIP3      4660            0.0000000000
     31355      4797  TIP3      OH2            30.2769545965       49.5502070034       12.4609173976  TIP3      4661            0.0000000000
     31356      4797  TIP3      H1             29.9855514041       49.2818767002       13.3609670897  TIP3      4661            0.0000000000
     31357      4797  TIP3      H2             30.8857114216       48.8247752162       12.2277622042  TIP3      4661            0.0000000000
     31358      4798  TIP3      OH2            32.9910279379       50.7961012806        1.7853645166  TIP3      4662            0.0000000000
     31359      4798  TIP3      H1             33.2619297218       50.3175283188        2.5984794977  TIP3      4662            0.0000000000
     31360      4798  TIP3      H2             32.0661631316       50.4961777342        1.7260527284  TIP3      4662            0.0000000000
     31361      4799  TIP3      OH2            33.5726905320       54.0904667541       14.6341742875  TIP3      4663            0.0000000000
     31362      4799  TIP3      H1             32.7510022389       53.6424894534       14.3616985759  TIP3      4663            0.0000000000
     31363      4799  TIP3      H2             33.6398172949       54.8169664830       13.9793431902  TIP3      4663            0.0000000000
     31364      4800  TIP3      OH2            37.4069793668       55.0209131578        1.8445451213  TIP3      4664            0.0000000000
     31365      4800  TIP3      H1             38.0256366825       55.5850468914        1.3531105096  TIP3      4664            0.0000000000
     31366      4800  TIP3      H2             36.8164338407       55.6817932403        2.2674303135  TIP3      4664            0.0000000000
     31367      4801  TIP3      OH2            21.9155868954       41.5483369656       14.3805427420  TIP3      4665            0.0000000000
     31368      4801  TIP3      H1             21.3334601333       41.8070625939       15.1109165647  TIP3      4665            0.0000000000
     31369      4801  TIP3      H2             22.0495266995       40.6182450825       14.6312089227  TIP3      4665            0.0000000000
     31370      4802  TIP3      OH2            33.7078606639       49.3657665536        3.9728813833  TIP3      4666            0.0000000000
     31371      4802  TIP3      H1             33.4948728611       48.6010320699        4.5642457248  TIP3      4666            0.0000000000
     31372      4802  TIP3      H2             34.6825508456       49.2753387047        3.9747653628  TIP3      4666            0.0000000000
     31373      4803  TIP3      OH2            21.3522905471       53.3321641358       12.7106102659  TIP3      4667            0.0000000000
     31374      4803  TIP3      H1             21.8452457068       52.5014462111       12.6714511063  TIP3      4667            0.0000000000
     31375      4803  TIP3      H2             21.6224206955       53.6594273677       13.5849252307  TIP3      4667            0.0000000000
     31376      4804  TIP3      OH2            25.7301676690       51.2145533252        2.4424778605  TIP3      4668            0.0000000000
     31377      4804  TIP3      H1             26.3660444996       50.6717328608        2.9351250362  TIP3      4668            0.0000000000
     31378      4804  TIP3      H2             25.9264314327       52.1321002488        2.7455534651  TIP3      4668            0.0000000000
     31379      4805  TIP3      OH2            22.2164492638       48.4860059564        3.0115662077  TIP3      4669            0.0000000000
     31380      4805  TIP3      H1             21.5043346837       48.8966362870        3.5506029995  TIP3      4669            0.0000000000
     31381      4805  TIP3      H2             22.5126939536       49.2244079215        2.4573542486  TIP3      4669            0.0000000000
     31382      4806  TIP3      OH2            30.2079571283       41.1718926579       13.4519719965  TIP3      4670            0.0000000000
     31383      4806  TIP3      H1             31.1440463292       41.1627970050       13.7042665018  TIP3      4670            0.0000000000
     31384      4806  TIP3      H2             29.9300134947       40.2446355466       13.6238039648  TIP3      4670            0.0000000000
     31385      4807  TIP3      OH2            30.8394354778       40.8367593635        4.3747934308  TIP3      4671            0.0000000000
     31386      4807  TIP3      H1             31.3866179202       41.0234190469        3.5805673427  TIP3      4671            0.0000000000
     31387      4807  TIP3      H2             31.4255018341       41.1287543445        5.1036885175  TIP3      4671            0.0000000000
     31388      4808  TIP3      OH2            28.7926029133       52.6818558814        3.3861996229  TIP3      4672            0.0000000000
     31389      4808  TIP3      H1             28.0581216456       53.3097528042        3.4819476646  TIP3      4672            0.0000000000
     31390      4808  TIP3      H2             29.3485664232       53.1342676553        2.7104664418  TIP3      4672            0.0000000000
     31391      4809  TIP3      OH2            28.1171381922       42.8253690663        4.9201037344  TIP3      4673            0.0000000000
     31392      4809  TIP3      H1             28.8490001898       43.4269405824        5.1629189193  TIP3      4673            0.0000000000
     31393      4809  TIP3      H2             27.9858057904       42.3362132473        5.7631418142  TIP3      4673            0.0000000000
     31394      4810  TIP3      OH2            29.0407723665       43.9598763149       14.4582064746  TIP3      4674            0.0000000000
     31395      4810  TIP3      H1             28.9408032734       44.2702173648       15.3855028714  TIP3      4674            0.0000000000
     31396      4810  TIP3      H2             29.1751942242       42.9962757064       14.5383310073  TIP3      4674            0.0000000000
     31397      4811  TIP3      OH2            29.0527602777       39.3789990879        5.7635881395  TIP3      4675            0.0000000000
     31398      4811  TIP3      H1             28.6327768076       40.0303543700        6.3645249672  TIP3      4675            0.0000000000
     31399      4811  TIP3      H2             29.7800709513       39.9335394624        5.3793670386  TIP3      4675            0.0000000000
     31400      4812  TIP3      OH2            26.0765230528       53.7857773459        3.0937223873  TIP3      4676            0.0000000000
     31401      4812  TIP3      H1             26.2372071602       54.6596307866        2.6822800966  TIP3      4676            0.0000000000
     31402      4812  TIP3      H2             25.7555978466       54.0346922009        3.9886019482  TIP3      4676            0.0000000000
     31403      4813  TIP3      OH2            24.5303435897       40.5451470699        2.9789990486  TIP3      4677            0.0000000000
     31404      4813  TIP3      H1             24.3696654223       41.4012374855        3.4241734471  TIP3      4677            0.0000000000
     31405      4813  TIP3      H2             25.4231778620       40.3386777926        3.3296235827  TIP3      4677            0.0000000000
     31406      4814  TIP3      OH2            34.8532618471       41.1086986407       15.7065610681  TIP3      4678            0.0000000000
     31407      4814  TIP3      H1             33.9617588189       41.0489436296       15.3173137013  TIP3      4678            0.0000000000
     31408      4814  TIP3      H2             35.3457278913       41.4274568743       14.9217076187  TIP3      4678            0.0000000000
     31409      4815  TIP3      OH2            33.8694000330       45.2274905300        9.3802623834  TIP3      4679            0.0000000000
     31410      4815  TIP3      H1             33.0915023048       44.6443105900        9.2478336591  TIP3      4679            0.0000000000
     31411      4815  TIP3      H2             34.4713247540       44.6809553407        9.9299466266  TIP3      4679            0.0000000000
     31412      4816  TIP3      OH2            23.0511037102       51.0777279768        1.5099005499  TIP3      4680            0.0000000000
     31413      4816  TIP3      H1             23.8065209834       51.4041978591        2.0341876738  TIP3      4680            0.0000000000
     31414      4816  TIP3      H2             23.5569326321       50.5110965231        0.8836170288  TIP3      4680            0.0000000000
     31415      4817  TIP3      OH2            20.7162794150       44.1730479108        1.5782481685  TIP3      4681            0.0000000000
     31416      4817  TIP3      H1             21.5155450970       44.5158204985        1.1192712418  TIP3      4681            0.0000000000
     31417      4817  TIP3      H2             20.0126582589       44.2961514726        0.9150793118  TIP3      4681            0.0000000000
     31418      4818  TIP3      OH2            34.8839033234       54.9278759810       10.9790151868  TIP3      4682            0.0000000000
     31419      4818  TIP3      H1             34.8405732549       55.5815488401       10.2411310843  TIP3      4682            0.0000000000
     31420      4818  TIP3      H2             35.8456835145       54.7730038870       10.9802308846  TIP3      4682            0.0000000000
     31421      4819  TIP3      OH2            21.8992970563       38.5777786650        9.9053902547  TIP3      4683            0.0000000000
     31422      4819  TIP3      H1             21.9177809306       38.4042155783        8.9427918766  TIP3      4683            0.0000000000
     31423      4819  TIP3      H2             21.7780690344       37.6540305108       10.2394499798  TIP3      4683            0.0000000000
     31424      4820  TIP3      OH2            21.1234836002       53.0600095682        5.8108772613  TIP3      4684            0.0000000000
     31425      4820  TIP3      H1             20.2242474381       52.9299595894        6.1450354005  TIP3      4684            0.0000000000
     31426      4820  TIP3      H2             20.9217680248       53.2697087460        4.8703816129  TIP3      4684            0.0000000000
     31427      4821  TIP3      OH2            20.2456020820       54.9885229341       16.9245552556  TIP3      4685            0.0000000000
     31428      4821  TIP3      H1             20.7103605530       54.7152048685       17.7429282084  TIP3      4685            0.0000000000
     31429      4821  TIP3      H2             19.8581641637       54.1257327820       16.6366480300  TIP3      4685            0.0000000000
     31430      4822  TIP3      OH2            24.6084121664       54.3604110762       18.0789135658  TIP3      4686            0.0000000000
     31431      4822  TIP3      H1             25.5561479218       54.4681941374       18.2510000727  TIP3      4686            0.0000000000
     31432      4822  TIP3      H2             24.5862079990       53.7089009643       17.3407881128  TIP3      4686            0.0000000000
     31433      4823  TIP3      OH2            29.9361577539       53.6805646430        1.0827110005  TIP3      4687            0.0000000000
     31434      4823  TIP3      H1             29.3228328435       53.1401815285        0.5445428290  TIP3      4687            0.0000000000
     31435      4823  TIP3      H2             30.5930821667       53.9437289931        0.4171460228  TIP3      4687            0.0000000000
     31436      4824  TIP3      OH2            31.3076540576       52.8704569777       17.3436063645  TIP3      4688            0.0000000000
     31437      4824  TIP3      H1             31.0090583843       51.9509712835       17.5681076791  TIP3      4688            0.0000000000
     31438      4824  TIP3      H2             32.2127283793       52.8368626944       17.7288296283  TIP3      4688            0.0000000000
     31439      4825  TIP3      OH2            33.9560175902       53.0602379284        0.3550299942  TIP3      4689            0.0000000000
     31440      4825  TIP3      H1             33.5401775886       52.3177393390        0.8466570746  TIP3      4689            0.0000000000
     31441      4825  TIP3      H2             34.8835723021       52.8657911639        0.5925935244  TIP3      4689            0.0000000000
     31442      4826  TIP3      OH2            20.0173395079       48.6417709434       18.2459972314  TIP3      4690            0.0000000000
     31443      4826  TIP3      H1             20.1379181095       47.6642573964       18.1789457527  TIP3      4690            0.0000000000
     31444      4826  TIP3      H2             19.4382401681       48.7862001044       17.4669823546  TIP3      4690            0.0000000000
     31445      4827  TIP3      OH2            24.8298626301       49.0398462552        0.4266197328  TIP3      4691            0.0000000000
     31446      4827  TIP3      H1             25.4962052282       48.8087263859        1.1035962240  TIP3      4691            0.0000000000
     31447      4827  TIP3      H2             25.1669173901       48.5760116519       -0.3654090740  TIP3      4691            0.0000000000
     31448      4828  TIP3      OH2            26.9392952656       48.9087333338       17.1193942942  TIP3      4692            0.0000000000
     31449      4828  TIP3      H1             26.6347730650       49.5222881734       16.4020533340  TIP3      4692            0.0000000000
     31450      4828  TIP3      H2             26.7771540528       48.0093070884       16.7396521106  TIP3      4692            0.0000000000
     31451      4829  TIP3      OH2            32.5050113211       48.8038591141       14.8666009235  TIP3      4693            0.0000000000
     31452      4829  TIP3      H1             33.2921480604       49.3893649551       14.8237993457  TIP3      4693            0.0000000000
     31453      4829  TIP3      H2             31.8362505033       49.5072848499       14.9676053000  TIP3      4693            0.0000000000
     31454      4830  TIP3      OH2            20.8504706937       46.0485724500       18.2031429693  TIP3      4694            0.0000000000
     31455      4830  TIP3      H1             21.5610688419       45.3957138995       18.0653907176  TIP3      4694            0.0000000000
     31456      4830  TIP3      H2             20.4545984115       45.6245177493       18.9889682904  TIP3      4694            0.0000000000
     31457      4831  TIP3      OH2            25.9055223944       47.4618389061        2.3462774688  TIP3      4695            0.0000000000
     31458      4831  TIP3      H1             25.0842892301       46.9925160528        2.5759984647  TIP3      4695            0.0000000000
     31459      4831  TIP3      H2             26.3674998923       46.8054537678        1.7843515844  TIP3      4695            0.0000000000
     31460      4832  TIP3      OH2            24.8351538376       45.0614721771       13.8771172755  TIP3      4696            0.0000000000
     31461      4832  TIP3      H1             24.3914833705       45.7779372988       14.3901861847  TIP3      4696            0.0000000000
     31462      4832  TIP3      H2             25.6315997624       45.5404341735       13.5796217660  TIP3      4696            0.0000000000
     31463      4833  TIP3      OH2            26.9064604883       45.4686165664        0.4143790470  TIP3      4697            0.0000000000
     31464      4833  TIP3      H1             27.0043794926       45.7713540580       -0.5050327496  TIP3      4697            0.0000000000
     31465      4833  TIP3      H2             27.8328402163       45.5070093712        0.7476514017  TIP3      4697            0.0000000000
     31466      4834  TIP3      OH2            30.5236718334       47.9532992387       18.2629725037  TIP3      4698            0.0000000000
     31467      4834  TIP3      H1             31.0398627727       47.5233806348       17.5654656656  TIP3      4698            0.0000000000
     31468      4834  TIP3      H2             29.9754670817       47.2124142996       18.5786980533  TIP3      4698            0.0000000000
     31469      4835  TIP3      OH2            36.0323381813       48.0968702133       84.9944145967  TIP3      4699            0.0000000000
     31470      4835  TIP3      H1             35.8389037929       48.2087268089       84.0482261849  TIP3      4699            0.0000000000
     31471      4835  TIP3      H2             36.1666382318       49.0098261579       85.2868964148  TIP3      4699            0.0000000000
     31472      4836  TIP3      OH2            25.4559115582       43.0138712228       15.3839294148  TIP3      4700            0.0000000000
     31473      4836  TIP3      H1             25.7169550755       42.2170268489       14.8672574218  TIP3      4700            0.0000000000
     31474      4836  TIP3      H2             25.3844730569       43.7042162916       14.6828735014  TIP3      4700            0.0000000000
     31475      4837  TIP3      OH2            26.0065069948       40.8515468528       13.6989570212  TIP3      4701            0.0000000000
     31476      4837  TIP3      H1             26.6540394917       41.3261702933       13.1213023981  TIP3      4701            0.0000000000
     31477      4837  TIP3      H2             25.2008640989       40.9462842454       13.1566505241  TIP3      4701            0.0000000000
     31478      4838  TIP3      OH2            27.0072465171       46.7388209858       13.6576513981  TIP3      4702            0.0000000000
     31479      4838  TIP3      H1             27.9132945561       46.9532854484       13.4012417612  TIP3      4702            0.0000000000
     31480      4838  TIP3      H2             26.4920280462       47.4361846163       13.1945401726  TIP3      4702            0.0000000000
     31481      4839  TIP3      OH2            31.9193765265       44.0223616650       18.4454853913  TIP3      4703            0.0000000000
     31482      4839  TIP3      H1             31.6823631695       43.1247379947       18.1967377692  TIP3      4703            0.0000000000
     31483      4839  TIP3      H2             32.8193815688       44.0805352648       18.0746533742  TIP3      4703            0.0000000000
     31484      4840  TIP3      OH2            33.4344306284       47.2784294702       16.9728683887  TIP3      4704            0.0000000000
     31485      4840  TIP3      H1             33.0265216483       47.8166006436       16.2643027805  TIP3      4704            0.0000000000
     31486      4840  TIP3      H2             34.3561239127       47.1737442693       16.6451937369  TIP3      4704            0.0000000000
     31487      4841  TIP3      OH2            24.0188236591       43.5293572960       17.7104744106  TIP3      4705            0.0000000000
     31488      4841  TIP3      H1             23.1201630394       43.1705408807       17.7755680876  TIP3      4705            0.0000000000
     31489      4841  TIP3      H2             24.3626243533       43.1923930517       16.8605373483  TIP3      4705            0.0000000000
     31490      4842  TIP3      OH2            26.8923396192       38.3138510981       13.4901269732  TIP3      4706            0.0000000000
     31491      4842  TIP3      H1             26.5442427587       39.2211884676       13.6354367781  TIP3      4706            0.0000000000
     31492      4842  TIP3      H2             26.0749394578       37.8490124353       13.2337897045  TIP3      4706            0.0000000000
     31493      4843  TIP3      OH2            27.5014585972       42.8644500545       17.2657572938  TIP3      4707            0.0000000000
     31494      4843  TIP3      H1             27.0682024817       42.3259688226       17.9570466140  TIP3      4707            0.0000000000
     31495      4843  TIP3      H2             26.7948387104       42.8039537680       16.5872839640  TIP3      4707            0.0000000000
     31496      4844  TIP3      OH2            30.8594215248       41.8619351199       16.8206586741  TIP3      4708            0.0000000000
     31497      4844  TIP3      H1             29.9233585221       41.6184838726       16.8668023152  TIP3      4708            0.0000000000
     31498      4844  TIP3      H2             31.2573610469       41.2735955092       17.4836251107  TIP3      4708            0.0000000000
     31499      4845  TIP3      OH2            32.5446361539       40.3698515667       18.4703655022  TIP3      4709            0.0000000000
     31500      4845  TIP3      H1             32.3127455070       39.4293845003       18.2777427319  TIP3      4709            0.0000000000
     31501      4845  TIP3      H2             31.9828939826       40.5345849839       19.2336131352  TIP3      4709            0.0000000000
     31502      4846  TIP3      OH2            21.7616508745       41.3992235282       17.7743338068  TIP3      4710            0.0000000000
     31503      4846  TIP3      H1             21.7137526318       40.5079351108       17.3635255031  TIP3      4710            0.0000000000
     31504      4846  TIP3      H2             22.1453073495       41.1869205108       18.6586908126  TIP3      4710            0.0000000000
     31505      4847  TIP3      OH2            26.2869520063       37.8223502745       16.2289651402  TIP3      4711            0.0000000000
     31506      4847  TIP3      H1             27.0769401637       37.2907796874       16.4252561936  TIP3      4711            0.0000000000
     31507      4847  TIP3      H2             26.4500790338       38.0363254761       15.2878461421  TIP3      4711            0.0000000000
     31508      4848  TIP3      OH2            26.8122788833       38.7491082839       19.1973403455  TIP3      4712            0.0000000000
     31509      4848  TIP3      H1             26.6033400389       38.3214834212       18.3509040821  TIP3      4712            0.0000000000
     31510      4848  TIP3      H2             26.4002817568       39.6142077870       19.0284004449  TIP3      4712            0.0000000000
     31511      4849  TIP3      OH2            26.6133535134       56.3497896982        1.7775714027  TIP3      4713            0.0000000000
     31512      4849  TIP3      H1             27.3794631883       56.8897154953        2.0290085265  TIP3      4713            0.0000000000
     31513      4849  TIP3      H2             26.6904784485       56.3473583980        0.8037522600  TIP3      4713            0.0000000000
     31514      4850  TIP3      OH2            20.1467671753       50.7592284510        1.2175563616  TIP3      4714            0.0000000000
     31515      4850  TIP3      H1             21.1186982972       50.8794686531        1.3121211439  TIP3      4714            0.0000000000
     31516      4850  TIP3      H2             20.1491402971       50.2057473529        0.4147220259  TIP3      4714            0.0000000000
     31517      4851  TIP3      OH2            19.2479234919       56.1012009236        6.2081842915  TIP3      4715            0.0000000000
     31518      4851  TIP3      H1             18.8091842112       55.5700601317        5.5199310297  TIP3      4715            0.0000000000
     31519      4851  TIP3      H2             19.3491704103       55.4313083378        6.9228283686  TIP3      4715            0.0000000000
     31520      4852  TIP3      OH2            19.7464603797       54.3766135700        8.1685185623  TIP3      4716            0.0000000000
     31521      4852  TIP3      H1             19.2203244203       53.5873832960        8.3458255094  TIP3      4716            0.0000000000
     31522      4852  TIP3      H2             20.0436331557       54.5901005057        9.0786494791  TIP3      4716            0.0000000000
     31523      4853  TIP3      OH2            37.8554198442       55.3241509369       10.6616740007  TIP3      4717            0.0000000000
     31524      4853  TIP3      H1             38.0661302464       54.9991426864       11.5486741953  TIP3      4717            0.0000000000
     31525      4853  TIP3      H2             38.1172985006       56.2578574000       10.7378499289  TIP3      4717            0.0000000000
     31526      4854  TIP3      OH2            36.7964855530       54.5847292062       13.6252578067  TIP3      4718            0.0000000000
     31527      4854  TIP3      H1             36.4705481500       53.8102414343       13.1217999040  TIP3      4718            0.0000000000
     31528      4854  TIP3      H2             37.0549166870       54.1573606327       14.4570329224  TIP3      4718            0.0000000000
     31529      4855  TIP3      OH2            35.7151960352       50.4581665209       18.6131758600  TIP3      4719            0.0000000000
     31530      4855  TIP3      H1             34.8470481146       50.5829020548       19.0308527010  TIP3      4719            0.0000000000
     31531      4855  TIP3      H2             36.1261151250       51.3340810453       18.7549318288  TIP3      4719            0.0000000000
     31532      4856  TIP3      OH2            36.3985200978       48.7073038915        3.8749270431  TIP3      4720            0.0000000000
     31533      4856  TIP3      H1             37.2906929522       49.0937161625        4.0434888982  TIP3      4720            0.0000000000
     31534      4856  TIP3      H2             36.3340970219       48.0666386433        4.6152368507  TIP3      4720            0.0000000000
     31535      4857  TIP3      OH2            37.0295838995       46.7056022129        6.1274967307  TIP3      4721            0.0000000000
     31536      4857  TIP3      H1             36.3046555344       46.1904046525        6.5552701586  TIP3      4721            0.0000000000
     31537      4857  TIP3      H2             37.6628684927       46.8335300388        6.8687518881  TIP3      4721            0.0000000000
     31538      4858  TIP3      OH2            36.7199829257       49.4312341687       10.6465921294  TIP3      4722            0.0000000000
     31539      4858  TIP3      H1             37.4722785975       48.8399288204       10.4440250941  TIP3      4722            0.0000000000
     31540      4858  TIP3      H2             36.9772666093       50.2464763171       10.1857737240  TIP3      4722            0.0000000000
     31541      4859  TIP3      OH2            35.4683405331       52.2750815748       12.9765567215  TIP3      4723            0.0000000000
     31542      4859  TIP3      H1             34.8046731503       52.8675872598       13.3723214194  TIP3      4723            0.0000000000
     31543      4859  TIP3      H2             35.0750704444       52.0264412499       12.1211433288  TIP3      4723            0.0000000000
     31544      4860  TIP3      OH2            37.0878201140       46.4275381835        2.3318564490  TIP3      4724            0.0000000000
     31545      4860  TIP3      H1             36.5216027030       46.5226080109        1.5436287841  TIP3      4724            0.0000000000
     31546      4860  TIP3      H2             36.8054566361       47.1879255143        2.8714689709  TIP3      4724            0.0000000000
     31547      4861  TIP3      OH2            34.7689030495       43.6706431234        1.0982472374  TIP3      4725            0.0000000000
     31548      4861  TIP3      H1             35.4675503490       44.0342039546        0.5276385333  TIP3      4725            0.0000000000
     31549      4861  TIP3      H2             34.7263868413       42.7553164197        0.7545380379  TIP3      4725            0.0000000000
     31550      4862  TIP3      OH2            34.8113485473       45.2843585966        6.8400338463  TIP3      4726            0.0000000000
     31551      4862  TIP3      H1             34.6130719116       44.3827344906        6.5268306461  TIP3      4726            0.0000000000
     31552      4862  TIP3      H2             34.5660737917       45.2597911590        7.7954725427  TIP3      4726            0.0000000000
     31553      4863  TIP3      OH2            19.7107107843       47.5891836256       10.7891282483  TIP3      4727            0.0000000000
     31554      4863  TIP3      H1             19.6304853779       47.2098154103        9.8793789017  TIP3      4727            0.0000000000
     31555      4863  TIP3      H2             20.6412073574       47.3299784795       10.9941278964  TIP3      4727            0.0000000000
     31556      4864  TIP3      OH2            36.0492593501       47.1186085125       16.1505960329  TIP3      4728            0.0000000000
     31557      4864  TIP3      H1             36.4335389629       46.2344475670       16.3947643359  TIP3      4728            0.0000000000
     31558      4864  TIP3      H2             36.8295100777       47.6554529603       15.8948223673  TIP3      4728            0.0000000000
     31559      4865  TIP3      OH2            36.6485479574       44.6523009284       16.8567232934  TIP3      4729            0.0000000000
     31560      4865  TIP3      H1             35.7922845418       44.1733835415       16.8661959414  TIP3      4729            0.0000000000
     31561      4865  TIP3      H2             37.2858918352       43.8989116069       16.9074935196  TIP3      4729            0.0000000000
     31562      4866  TIP3      OH2            34.9028104898       41.2716364767       -0.0689817964  TIP3      4730            0.0000000000
     31563      4866  TIP3      H1             35.4394902072       40.7843886864        0.5970809523  TIP3      4730            0.0000000000
     31564      4866  TIP3      H2             33.9957935388       41.1705083001        0.2698623646  TIP3      4730            0.0000000000
     31565      4867  TIP3      OH2            34.3081820487       43.2023702734        5.1006581176  TIP3      4731            0.0000000000
     31566      4867  TIP3      H1             34.6293936327       42.3139861164        5.3787112313  TIP3      4731            0.0000000000
     31567      4867  TIP3      H2             34.8395042597       43.2779240606        4.2933118499  TIP3      4731            0.0000000000
     31568      4868  TIP3      OH2            35.4845962175       43.5731440428       10.9737788054  TIP3      4732            0.0000000000
     31569      4868  TIP3      H1             36.4670984779       43.6281514941       10.8951060646  TIP3      4732            0.0000000000
     31570      4868  TIP3      H2             35.4195400066       43.6094493390       11.9472132571  TIP3      4732            0.0000000000
     31571      4869  TIP3      OH2            35.5514169146       44.2741937316       13.5560757448  TIP3      4733            0.0000000000
     31572      4869  TIP3      H1             34.6219254379       44.5297311005       13.7564905257  TIP3      4733            0.0000000000
     31573      4869  TIP3      H2             35.9328717040       45.1401551968       13.2722095624  TIP3      4733            0.0000000000
     31574      4870  TIP3      OH2            19.4560552620       42.1029533042       16.7825488594  TIP3      4734            0.0000000000
     31575      4870  TIP3      H1             20.3496633949       42.0586015299       17.2016588408  TIP3      4734            0.0000000000
     31576      4870  TIP3      H2             19.0145505313       41.3673049098       17.2522234413  TIP3      4734            0.0000000000
     31577      4871  TIP3      OH2            37.3879885187       36.8883464555       18.9209360109  TIP3      4735            0.0000000000
     31578      4871  TIP3      H1             37.9314840000       36.6602791863       18.1489897252  TIP3      4735            0.0000000000
     31579      4871  TIP3      H2             37.3637697772       37.8655182899       18.8897932367  TIP3      4735            0.0000000000
     31580      4872  TIP3      OH2            35.3386781625       40.7383461880        5.1156180788  TIP3      4736            0.0000000000
     31581      4872  TIP3      H1             35.5879131514       40.1319466021        5.8402715754  TIP3      4736            0.0000000000
     31582      4872  TIP3      H2             34.7028907822       40.1937695772        4.6259808979  TIP3      4736            0.0000000000
     31583      4873  TIP3      OH2            20.5953879145       40.8177189163       10.4420403965  TIP3      4737            0.0000000000
     31584      4873  TIP3      H1             20.9688542487       39.9205670488       10.2722014332  TIP3      4737            0.0000000000
     31585      4873  TIP3      H2             21.3827352570       41.3823193109       10.3912332297  TIP3      4737            0.0000000000
     31586      4874  TIP3      OH2            19.4153405004       43.9122803039       11.0880889755  TIP3      4738            0.0000000000
     31587      4874  TIP3      H1             19.8813078165       43.4704069448       10.3516598789  TIP3      4738            0.0000000000
     31588      4874  TIP3      H2             19.9242771469       44.7283723891       11.1698550871  TIP3      4738            0.0000000000
     31589      4875  TIP3      OH2            36.3641613055       39.4800189467       17.5212120073  TIP3      4739            0.0000000000
     31590      4875  TIP3      H1             35.9602511124       40.2647465333       17.1051660734  TIP3      4739            0.0000000000
     31591      4875  TIP3      H2             36.7920704870       39.0672310301       16.7485167719  TIP3      4739            0.0000000000
     31592      4876  TIP3      OH2            36.8080168603       40.4723729292        1.7056064929  TIP3      4740            0.0000000000
     31593      4876  TIP3      H1             37.1881803205       40.1003013562        0.8948711096  TIP3      4740            0.0000000000
     31594      4876  TIP3      H2             37.5389501347       41.0601580011        2.0008193786  TIP3      4740            0.0000000000
     31595      4877  TIP3      OH2            19.3105356674       40.0839754788        4.6398218974  TIP3      4741            0.0000000000
     31596      4877  TIP3      H1             18.6098871360       40.6398358020        5.0136383422  TIP3      4741            0.0000000000
     31597      4877  TIP3      H2             19.4074981324       40.4759245299        3.7480305344  TIP3      4741            0.0000000000
     31598      4878  TIP3      OH2            34.4203205618       55.2696688717        6.9904141796  TIP3      4742            0.0000000000
     31599      4878  TIP3      H1             35.2502470322       55.1639507622        6.4803574679  TIP3      4742            0.0000000000
     31600      4878  TIP3      H2             34.6985563497       55.8982209948        7.6842283885  TIP3      4742            0.0000000000
     31601      4879  TIP3      OH2            19.1496112842       38.8279830710       13.0145080809  TIP3      4743            0.0000000000
     31602      4879  TIP3      H1             18.5407758257       38.5852760439       13.7331202919  TIP3      4743            0.0000000000
     31603      4879  TIP3      H2             18.6278250010       39.4864944710       12.5226959068  TIP3      4743            0.0000000000
     31604      4880  TIP3      OH2            21.7694475000       51.8856536694       17.1507344307  TIP3      4744            0.0000000000
     31605      4880  TIP3      H1             21.0576979151       52.3374098070       16.6610723890  TIP3      4744            0.0000000000
     31606      4880  TIP3      H2             21.3113454140       51.7026979944       17.9829171221  TIP3      4744            0.0000000000
     31607      4881  TIP3      OH2            24.5429832713       53.7501968557       13.8292327555  TIP3      4745            0.0000000000
     31608      4881  TIP3      H1             24.6238055595       54.6103916695       13.3778410273  TIP3      4745            0.0000000000
     31609      4881  TIP3      H2             25.4560366996       53.4139741774       13.6958019698  TIP3      4745            0.0000000000
     31610      4882  TIP3      OH2            28.6855491917       54.5852558814       16.2728024130  TIP3      4746            0.0000000000
     31611      4882  TIP3      H1             28.7855304858       54.5508585039       17.2384426552  TIP3      4746            0.0000000000
     31612      4882  TIP3      H2             29.5394130372       54.9837277496       15.9947738787  TIP3      4746            0.0000000000
     31613      4883  TIP3      OH2            30.9443361546       56.0331649174       15.7909171430  TIP3      4747            0.0000000000
     31614      4883  TIP3      H1             31.6860452517       55.5600814360       15.3810933850  TIP3      4747            0.0000000000
     31615      4883  TIP3      H2             31.3227809451       56.3446753390       16.6386027197  TIP3      4747            0.0000000000
     31616      4884  TIP3      OH2            36.2355205261       37.9957060489       14.8959660893  TIP3      4748            0.0000000000
     31617      4884  TIP3      H1             35.3637534840       38.1178321794       14.4913206624  TIP3      4748            0.0000000000
     31618      4884  TIP3      H2             36.4291189192       37.0746050956       14.6280413402  TIP3      4748            0.0000000000
     31619      4885  TIP3      OH2            21.9914439787       56.5309818075       13.2988960561  TIP3      4749            0.0000000000
     31620      4885  TIP3      H1             21.2852813870       57.1322069411       12.9969192960  TIP3      4749            0.0000000000
     31621      4885  TIP3      H2             21.7175003109       56.3045947112       14.1967809682  TIP3      4749            0.0000000000
     31622      4886  TIP3      OH2            24.5143084506       56.2155738673       12.3763901428  TIP3      4750            0.0000000000
     31623      4886  TIP3      H1             23.5811288842       56.2205049309       12.6971430704  TIP3      4750            0.0000000000
     31624      4886  TIP3      H2             24.4673411971       56.8702596360       11.6562660112  TIP3      4750            0.0000000000
     31625      4887  TIP3      OH2            28.9457318654       55.3737845219       11.8033596373  TIP3      4751            0.0000000000
     31626      4887  TIP3      H1             28.4145129359       55.8985220787       11.1869473302  TIP3      4751            0.0000000000
     31627      4887  TIP3      H2             29.1223292328       56.0551531288       12.4970950063  TIP3      4751            0.0000000000
     31628      4888  TIP3      OH2            31.1160632237       54.3371108711       13.0112916319  TIP3      4752            0.0000000000
     31629      4888  TIP3      H1             30.5019371687       54.7921930178       12.4039937265  TIP3      4752            0.0000000000
     31630      4888  TIP3      H2             31.9183683707       54.8782400603       12.8562239113  TIP3      4752            0.0000000000
     31631      4889  TIP3      OH2            33.2959928063       56.2370442530       12.8048472947  TIP3      4753            0.0000000000
     31632      4889  TIP3      H1             33.3897255521       57.2171966490       12.7417680103  TIP3      4753            0.0000000000
     31633      4889  TIP3      H2             33.8448663140       55.9484317882       12.0360053889  TIP3      4753            0.0000000000
     31634      4890  TIP3      OH2            21.4033036971       54.9830855168       10.4827157610  TIP3      4754            0.0000000000
     31635      4890  TIP3      H1             21.0924965586       54.5607727958       11.3155760280  TIP3      4754            0.0000000000
     31636      4890  TIP3      H2             22.1908461071       54.4384365744       10.2707813477  TIP3      4754            0.0000000000
     31637      4891  TIP3      OH2            23.5009510811       53.5205232893        9.4349098051  TIP3      4755            0.0000000000
     31638      4891  TIP3      H1             23.4246084336       52.5855255863        9.7166129860  TIP3      4755            0.0000000000
     31639      4891  TIP3      H2             24.4390898708       53.6836713592        9.6711910668  TIP3      4755            0.0000000000
     31640      4892  TIP3      OH2            25.9954053320       53.8844741461       10.2655108383  TIP3      4756            0.0000000000
     31641      4892  TIP3      H1             26.2782789590       52.9398506088       10.2876083035  TIP3      4756            0.0000000000
     31642      4892  TIP3      H2             26.2306243589       54.1810316351       11.1564318855  TIP3      4756            0.0000000000
     31643      4893  TIP3      OH2            28.9041095885       39.2484383902        8.9244574818  TIP3      4757            0.0000000000
     31644      4893  TIP3      H1             28.1325032936       38.8035590261        9.3567007281  TIP3      4757            0.0000000000
     31645      4893  TIP3      H2             29.3780228625       38.5000445505        8.5479741193  TIP3      4757            0.0000000000
     31646      4894  TIP3      OH2            34.7549062759       37.9195708157        9.0846083427  TIP3      4758            0.0000000000
     31647      4894  TIP3      H1             35.3956306432       38.4943885053        8.6065130132  TIP3      4758            0.0000000000
     31648      4894  TIP3      H2             33.9076807881       38.1916867947        8.6648127910  TIP3      4758            0.0000000000
     31649      4895  TIP3      OH2            36.3657692288       39.0490203078        7.1763942545  TIP3      4759            0.0000000000
     31650      4895  TIP3      H1             37.0492426638       38.4975486545        6.7420688868  TIP3      4759            0.0000000000
     31651      4895  TIP3      H2             36.9375956080       39.8060329633        7.4538076850  TIP3      4759            0.0000000000
     31652      4896  TIP3      OH2            21.9010393418       38.1956871829        7.1149858318  TIP3      4760            0.0000000000
     31653      4896  TIP3      H1             21.0615366820       38.1005564500        6.6210165775  TIP3      4760            0.0000000000
     31654      4896  TIP3      H2             22.2589139353       37.2863027898        7.0246581256  TIP3      4760            0.0000000000
     31655      4897  TIP3      OH2            20.4164318415       38.1225099580        2.7078101768  TIP3      4761            0.0000000000
     31656      4897  TIP3      H1             20.9705287413       38.7271119504        2.1715249836  TIP3      4761            0.0000000000
     31657      4897  TIP3      H2             20.0033115223       38.7181246518        3.3612924971  TIP3      4761            0.0000000000
     31658      4898  TIP3      OH2            26.2494271595       37.8956912246        6.8939670397  TIP3      4762            0.0000000000
     31659      4898  TIP3      H1             27.1650018015       37.8451027979        6.5737311109  TIP3      4762            0.0000000000
     31660      4898  TIP3      H2             26.3388792556       38.3216225394        7.7578441827  TIP3      4762            0.0000000000
     31661      4899  TIP3      OH2            32.1265256580       38.4307257559        8.0018688869  TIP3      4763            0.0000000000
     31662      4899  TIP3      H1             31.8014378964       38.4254569657        7.0868106963  TIP3      4763            0.0000000000
     31663      4899  TIP3      H2             31.6146913594       37.6824638085        8.3992601417  TIP3      4763            0.0000000000
     31664      4900  TIP3      OH2            33.3861744313       38.2729885144        3.5879839204  TIP3      4764            0.0000000000
     31665      4900  TIP3      H1             32.9489687332       37.8853845905        2.8009331052  TIP3      4764            0.0000000000
     31666      4900  TIP3      H2             33.0342060535       37.6874608884        4.2807784161  TIP3      4764            0.0000000000
     31667      4901  TIP3      OH2            20.3944322955       54.1672502179        3.4882262926  TIP3      4765            0.0000000000
     31668      4901  TIP3      H1             19.5000668222       54.2259734834        3.1156374552  TIP3      4765            0.0000000000
     31669      4901  TIP3      H2             20.6772452686       55.0877773062        3.3185291398  TIP3      4765            0.0000000000
     31670      4902  TIP3      OH2            22.1735367097       39.5046919397        1.2351125706  TIP3      4766            0.0000000000
     31671      4902  TIP3      H1             22.9667837902       38.9390541546        1.2437283033  TIP3      4766            0.0000000000
     31672      4902  TIP3      H2             22.4205948357       40.2445101151        1.8070709629  TIP3      4766            0.0000000000
     31673      4903  TIP3      OH2            27.4632449626       40.4810870800        3.7030715583  TIP3      4767            0.0000000000
     31674      4903  TIP3      H1             27.9236292909       39.9689969036        4.3949103812  TIP3      4767            0.0000000000
     31675      4903  TIP3      H2             27.7146794826       41.3904546211        3.9758493159  TIP3      4767            0.0000000000
     31676      4904  TIP3      OH2            29.6858155367       56.2809086420        1.7547631001  TIP3      4768            0.0000000000
     31677      4904  TIP3      H1             30.1962528819       56.6813231867        1.0337582247  TIP3      4768            0.0000000000
     31678      4904  TIP3      H2             29.8923048363       55.3353634578        1.5889759195  TIP3      4768            0.0000000000
     31679      4905  TIP3      OH2            36.1866896615       54.5744689764        5.1248363315  TIP3      4769            0.0000000000
     31680      4905  TIP3      H1             35.8639364691       53.8568955995        4.5307204797  TIP3      4769            0.0000000000
     31681      4905  TIP3      H2             36.0138441175       55.3415175942        4.5402258644  TIP3      4769            0.0000000000
     31682      4906  TIP3      OH2            21.5874739323       38.9017792978       16.5526765003  TIP3      4770            0.0000000000
     31683      4906  TIP3      H1             21.0704237233       38.0712326757       16.5674160298  TIP3      4770            0.0000000000
     31684      4906  TIP3      H2             22.3832622828       38.6683493259       17.0786270268  TIP3      4770            0.0000000000
     31685      4907  TIP3      OH2            23.7502555683       38.1643647864       18.3555181481  TIP3      4771            0.0000000000
     31686      4907  TIP3      H1             24.5175448925       37.9988386538       17.7717822380  TIP3      4771            0.0000000000
     31687      4907  TIP3      H2             23.5972657262       37.2668419017       18.7018572251  TIP3      4771            0.0000000000
     31688      4908  TIP3      OH2            22.5784674833       55.9044356306        1.2380336779  TIP3      4772            0.0000000000
     31689      4908  TIP3      H1             21.7185357614       55.9612202221        1.6865484751  TIP3      4772            0.0000000000
     31690      4908  TIP3      H2             22.6520954235       54.9875042162        0.9542338500  TIP3      4772            0.0000000000
     31691      4909  TIP3      OH2            31.8721571106       37.7657758957       18.3237601924  TIP3      4773            0.0000000000
     31692      4909  TIP3      H1             31.7874601212       37.4372082788       19.2392219782  TIP3      4773            0.0000000000
     31693      4909  TIP3      H2             32.7274238513       37.3594840145       18.0726695619  TIP3      4773            0.0000000000
     31694      4910  TIP3      OH2            35.3263297476       53.7198956914       16.6637525787  TIP3      4774            0.0000000000
     31695      4910  TIP3      H1             34.5735209021       53.5880110504       16.0410303924  TIP3      4774            0.0000000000
     31696      4910  TIP3      H2             35.1968218741       54.6692802784       16.8638785963  TIP3      4774            0.0000000000
     31697      4911  TIP3      OH2            50.0394183920       47.7211590829        6.6305355832  TIP3      4775            0.0000000000
     31698      4911  TIP3      H1             49.6568146276       48.6092797183        6.4768972368  TIP3      4775            0.0000000000
     31699      4911  TIP3      H2             49.4853033378       47.1929676135        6.0227243552  TIP3      4775            0.0000000000
     31700      4912  TIP3      OH2            48.7412981002       46.4150202286        9.8488700917  TIP3      4776            0.0000000000
     31701      4912  TIP3      H1             48.5956994971       46.0957726767       10.7648955806  TIP3      4776            0.0000000000
     31702      4912  TIP3      H2             48.0243365783       45.9956540835        9.3473271156  TIP3      4776            0.0000000000
     31703      4913  TIP3      OH2            40.8448567012       46.4923249788       11.7245267636  TIP3      4777            0.0000000000
     31704      4913  TIP3      H1             41.0559038674       45.6373501010       12.1308278489  TIP3      4777            0.0000000000
     31705      4913  TIP3      H2             41.6952140723       46.9505489247       11.8209416676  TIP3      4777            0.0000000000
     31706      4914  TIP3      OH2            52.2040029823       49.5252426132        8.9306827340  TIP3      4778            0.0000000000
     31707      4914  TIP3      H1             52.0846865173       48.7768659685        9.5368867138  TIP3      4778            0.0000000000
     31708      4914  TIP3      H2             52.2276615555       50.2807566748        9.5439248361  TIP3      4778            0.0000000000
     31709      4915  TIP3      OH2            42.0684499997       50.9713140318       10.1122061818  TIP3      4779            0.0000000000
     31710      4915  TIP3      H1             41.7710944322       50.1049289132        9.7578052830  TIP3      4779            0.0000000000
     31711      4915  TIP3      H2             43.0387883876       50.8810397906       10.0033523639  TIP3      4779            0.0000000000
     31712      4916  TIP3      OH2            38.5933886817       44.3892907658        5.7757796874  TIP3      4780            0.0000000000
     31713      4916  TIP3      H1             38.2569899721       45.2376007392        6.0954832771  TIP3      4780            0.0000000000
     31714      4916  TIP3      H2             38.4096695469       44.4583697504        4.8287765325  TIP3      4780            0.0000000000
     31715      4917  TIP3      OH2            38.9520955189       46.4657911213        8.1974457260  TIP3      4781            0.0000000000
     31716      4917  TIP3      H1             39.3092362310       45.5656478232        8.4084100460  TIP3      4781            0.0000000000
     31717      4917  TIP3      H2             39.7406765051       47.0218444835        8.0765616960  TIP3      4781            0.0000000000
     31718      4918  TIP3      OH2            49.4661423028       54.8346662870        8.7743261772  TIP3      4782            0.0000000000
     31719      4918  TIP3      H1             50.0907368247       54.3285788658        8.1961533624  TIP3      4782            0.0000000000
     31720      4918  TIP3      H2             49.2636851653       54.1496207578        9.4185767137  TIP3      4782            0.0000000000
     31721      4919  TIP3      OH2            46.6033768284       49.5001479319       11.2164573529  TIP3      4783            0.0000000000
     31722      4919  TIP3      H1             46.9590872742       49.0516217227       10.4350425183  TIP3      4783            0.0000000000
     31723      4919  TIP3      H2             47.4330589892       49.7127996430       11.7053980716  TIP3      4783            0.0000000000
     31724      4920  TIP3      OH2            55.6493050084       40.8328780279       10.4863314334  TIP3      4784            0.0000000000
     31725      4920  TIP3      H1             55.5698495079       41.1921188874       11.3898740442  TIP3      4784            0.0000000000
     31726      4920  TIP3      H2             56.5849823022       41.0125734002       10.3052969167  TIP3      4784            0.0000000000
     31727      4921  TIP3      OH2            50.5918711092       43.8683131187       11.2001523784  TIP3      4785            0.0000000000
     31728      4921  TIP3      H1             50.8488981454       42.9302096853       11.2273138431  TIP3      4785            0.0000000000
     31729      4921  TIP3      H2             50.0133917215       43.8523935819       10.4043214419  TIP3      4785            0.0000000000
     31730      4922  TIP3      OH2            43.2944201821       41.4051402983        8.0171363496  TIP3      4786            0.0000000000
     31731      4922  TIP3      H1             43.4051511193       42.2811685573        7.5712499577  TIP3      4786            0.0000000000
     31732      4922  TIP3      H2             42.8967566504       40.8942477767        7.2865903758  TIP3      4786            0.0000000000
     31733      4923  TIP3      OH2            50.8365435776       41.7751828956        6.6219262158  TIP3      4787            0.0000000000
     31734      4923  TIP3      H1             51.4119279055       41.4499443757        7.3384512175  TIP3      4787            0.0000000000
     31735      4923  TIP3      H2             51.2768478516       42.6194460477        6.4557545335  TIP3      4787            0.0000000000
     31736      4924  TIP3      OH2            39.7266287095       44.0013761263        8.9834791770  TIP3      4788            0.0000000000
     31737      4924  TIP3      H1             40.4532697787       43.6633869820        9.5333217469  TIP3      4788            0.0000000000
     31738      4924  TIP3      H2             39.9471327936       43.5608714910        8.1311261106  TIP3      4788            0.0000000000
     31739      4925  TIP3      OH2            44.9158798241       45.8011822402        8.4190512492  TIP3      4789            0.0000000000
     31740      4925  TIP3      H1             45.6685585141       45.2913122649        8.7770950984  TIP3      4789            0.0000000000
     31741      4925  TIP3      H2             44.4999143169       45.0602912966        7.9238285098  TIP3      4789            0.0000000000
     31742      4926  TIP3      OH2            55.7978161142       41.9504691063       13.4962104106  TIP3      4790            0.0000000000
     31743      4926  TIP3      H1             55.2968878473       42.7922600225       13.3586796296  TIP3      4790            0.0000000000
     31744      4926  TIP3      H2             56.1675080359       42.1132228761       14.3785843594  TIP3      4790            0.0000000000
     31745      4927  TIP3      OH2            42.3555813039       40.7041234740       12.1940345664  TIP3      4791            0.0000000000
     31746      4927  TIP3      H1             41.9342262875       41.2813963613       11.5308352648  TIP3      4791            0.0000000000
     31747      4927  TIP3      H2             41.7613517755       40.8519557672       12.9694385284  TIP3      4791            0.0000000000
     31748      4928  TIP3      OH2            49.1171745125       50.1046790393        5.7957391556  TIP3      4792            0.0000000000
     31749      4928  TIP3      H1             48.6374933737       49.9974496752        4.9545740196  TIP3      4792            0.0000000000
     31750      4928  TIP3      H2             48.6796358036       50.9212837093        6.1344334443  TIP3      4792            0.0000000000
     31751      4929  TIP3      OH2            44.2628469795       48.3672550694       12.1275222629  TIP3      4793            0.0000000000
     31752      4929  TIP3      H1             43.7229734698       49.0641977938       12.5701750284  TIP3      4793            0.0000000000
     31753      4929  TIP3      H2             45.0096003628       48.9124270439       11.8117318416  TIP3      4793            0.0000000000
     31754      4930  TIP3      OH2            52.9281112976       42.0353454677        8.5412563748  TIP3      4794            0.0000000000
     31755      4930  TIP3      H1             52.8321938624       41.3141324250        9.1720533344  TIP3      4794            0.0000000000
     31756      4930  TIP3      H2             53.5418538006       42.6064134728        9.0309413301  TIP3      4794            0.0000000000
     31757      4931  TIP3      OH2            41.8396675531       42.5334638436       10.1884612545  TIP3      4795            0.0000000000
     31758      4931  TIP3      H1             42.4720380116       43.1642835265       10.6128113802  TIP3      4795            0.0000000000
     31759      4931  TIP3      H2             42.3414118675       42.2400451646        9.3951349956  TIP3      4795            0.0000000000
     31760      4932  TIP3      OH2            43.2407088074       50.6814879469       13.1741189543  TIP3      4796            0.0000000000
     31761      4932  TIP3      H1             43.0528582572       51.6025894105       12.9259740326  TIP3      4796            0.0000000000
     31762      4932  TIP3      H2             42.3606174674       50.4557910787       13.5743131926  TIP3      4796            0.0000000000
     31763      4933  TIP3      OH2            38.8646851418       49.8259681629        4.0078851466  TIP3      4797            0.0000000000
     31764      4933  TIP3      H1             38.9567598145       50.2944562129        3.1452475402  TIP3      4797            0.0000000000
     31765      4933  TIP3      H2             38.8980606564       50.5781926142        4.6436346294  TIP3      4797            0.0000000000
     31766      4934  TIP3      OH2            52.7845498343       51.7121249394       10.8330122559  TIP3      4798            0.0000000000
     31767      4934  TIP3      H1             51.8281544760       51.8892289339       10.9914853374  TIP3      4798            0.0000000000
     31768      4934  TIP3      H2             53.0312389332       52.5545488294       10.4209313070  TIP3      4798            0.0000000000
     31769      4935  TIP3      OH2            53.2393343715       39.9453480450       11.5948074465  TIP3      4799            0.0000000000
     31770      4935  TIP3      H1             52.4949267636       40.2970412963       11.0640402556  TIP3      4799            0.0000000000
     31771      4935  TIP3      H2             53.9592124726       39.9295312101       10.9314131840  TIP3      4799            0.0000000000
     31772      4936  TIP3      OH2            45.7018270232       37.9645637092        9.7119775838  TIP3      4800            0.0000000000
     31773      4936  TIP3      H1             45.3201696627       37.0954384964        9.8955264600  TIP3      4800            0.0000000000
     31774      4936  TIP3      H2             44.8942817076       38.5111215273        9.9021960086  TIP3      4800            0.0000000000
     31775      4937  TIP3      OH2            51.2069913771       53.5850314149        7.1335717246  TIP3      4801            0.0000000000
     31776      4937  TIP3      H1             51.4469372063       52.6705586744        6.8635634386  TIP3      4801            0.0000000000
     31777      4937  TIP3      H2             52.0939600052       54.0226999546        7.1223047589  TIP3      4801            0.0000000000
     31778      4938  TIP3      OH2            52.1642770226       51.2945502117        6.0190874248  TIP3      4802            0.0000000000
     31779      4938  TIP3      H1             52.1374325214       50.6593913088        5.2674136281  TIP3      4802            0.0000000000
     31780      4938  TIP3      H2             51.8945121240       50.6885332348        6.7386601689  TIP3      4802            0.0000000000
     31781      4939  TIP3      OH2            53.8928273352       50.0705506204       14.5697588427  TIP3      4803            0.0000000000
     31782      4939  TIP3      H1             54.1310154817       49.2718371970       14.0406331778  TIP3      4803            0.0000000000
     31783      4939  TIP3      H2             54.1486582354       50.7592403969       13.9161751332  TIP3      4803            0.0000000000
     31784      4940  TIP3      OH2            48.2091331379       46.8688177026        4.3794799702  TIP3      4804            0.0000000000
     31785      4940  TIP3      H1             47.3530491733       46.4011555721        4.5150414074  TIP3      4804            0.0000000000
     31786      4940  TIP3      H2             48.2149083761       46.9300702093        3.4022825693  TIP3      4804            0.0000000000
     31787      4941  TIP3      OH2            48.3894267468       45.8192011361        1.8028412724  TIP3      4805            0.0000000000
     31788      4941  TIP3      H1             49.2302750162       46.0193979902        1.3379113988  TIP3      4805            0.0000000000
     31789      4941  TIP3      H2             48.6619019446       45.0532057123        2.3391788049  TIP3      4805            0.0000000000
     31790      4942  TIP3      OH2            55.9234279853       46.3857372293       12.5513396739  TIP3      4806            0.0000000000
     31791      4942  TIP3      H1             55.2191100379       47.0746749367       12.5178549195  TIP3      4806            0.0000000000
     31792      4942  TIP3      H2             56.5531578442       46.8389126200       11.9446646215  TIP3      4806            0.0000000000
     31793      4943  TIP3      OH2            52.4639041404       47.4072493572        5.5539748930  TIP3      4807            0.0000000000
     31794      4943  TIP3      H1             51.6382616254       47.5190162306        6.0929835969  TIP3      4807            0.0000000000
     31795      4943  TIP3      H2             52.9898477244       46.8386942231        6.1380987432  TIP3      4807            0.0000000000
     31796      4944  TIP3      OH2            51.8079555850       44.9545221885       14.5724525703  TIP3      4808            0.0000000000
     31797      4944  TIP3      H1             51.6312615300       45.4478721238       15.4084992437  TIP3      4808            0.0000000000
     31798      4944  TIP3      H2             51.2994165435       45.4744286338       13.9333526540  TIP3      4808            0.0000000000
     31799      4945  TIP3      OH2            43.2020767791       47.7264193407        7.2121562774  TIP3      4809            0.0000000000
     31800      4945  TIP3      H1             42.9976713629       47.3820413649        6.3165011335  TIP3      4809            0.0000000000
     31801      4945  TIP3      H2             43.8761469198       47.1002964420        7.5418976595  TIP3      4809            0.0000000000
     31802      4946  TIP3      OH2            44.8026248209       50.8823748303        9.7235436614  TIP3      4810            0.0000000000
     31803      4946  TIP3      H1             45.2023255979       50.7824643764        8.8426925756  TIP3      4810            0.0000000000
     31804      4946  TIP3      H2             45.4245184443       50.3987576071       10.3114848341  TIP3      4810            0.0000000000
     31805      4947  TIP3      OH2            43.5463448137       46.2795661441       10.7537592724  TIP3      4811            0.0000000000
     31806      4947  TIP3      H1             44.0121991717       46.2769168337        9.8884412695  TIP3      4811            0.0000000000
     31807      4947  TIP3      H2             44.0095301203       47.0032473649       11.2356887836  TIP3      4811            0.0000000000
     31808      4948  TIP3      OH2            50.1992939167       52.0775814960       11.3085452140  TIP3      4812            0.0000000000
     31809      4948  TIP3      H1             49.9168904704       52.7864527819       11.9228378148  TIP3      4812            0.0000000000
     31810      4948  TIP3      H2             49.7556744522       51.2957066208       11.6869946967  TIP3      4812            0.0000000000
     31811      4949  TIP3      OH2            44.7190374982       50.6193420645       15.4554163663  TIP3      4813            0.0000000000
     31812      4949  TIP3      H1             44.0690851312       51.2188977313       15.9062270860  TIP3      4813            0.0000000000
     31813      4949  TIP3      H2             44.2980106572       50.5681603135       14.5713738985  TIP3      4813            0.0000000000
     31814      4950  TIP3      OH2            50.8798180343       46.5208554676        3.2579567998  TIP3      4814            0.0000000000
     31815      4950  TIP3      H1             51.2936690114       46.8828173016        4.0602150739  TIP3      4814            0.0000000000
     31816      4950  TIP3      H2             51.2632763440       47.0389371320        2.5288630616  TIP3      4814            0.0000000000
     31817      4951  TIP3      OH2            41.8680899943       46.7533420762       14.7473688586  TIP3      4815            0.0000000000
     31818      4951  TIP3      H1             42.0255533660       47.4445715632       15.4157410106  TIP3      4815            0.0000000000
     31819      4951  TIP3      H2             40.8990978475       46.7211927531       14.7639919303  TIP3      4815            0.0000000000
     31820      4952  TIP3      OH2            48.0553369164       52.4123910347        6.6732772576  TIP3      4816            0.0000000000
     31821      4952  TIP3      H1             48.3098291692       53.0943183108        7.3049075537  TIP3      4816            0.0000000000
     31822      4952  TIP3      H2             47.7413220926       52.8917984667        5.8862385689  TIP3      4816            0.0000000000
     31823      4953  TIP3      OH2            42.9838274510       52.5007717636       16.0666907000  TIP3      4817            0.0000000000
     31824      4953  TIP3      H1             42.6985596369       52.8647002087       15.2144639990  TIP3      4817            0.0000000000
     31825      4953  TIP3      H2             42.1258396086       52.4033113944       16.5298945334  TIP3      4817            0.0000000000
     31826      4954  TIP3      OH2            54.5069381184       37.8921637537        3.0945783706  TIP3      4818            0.0000000000
     31827      4954  TIP3      H1             53.5378712669       37.9162316279        3.3051803748  TIP3      4818            0.0000000000
     31828      4954  TIP3      H2             54.6946199809       38.8082432355        2.8263370912  TIP3      4818            0.0000000000
     31829      4955  TIP3      OH2            41.8259815077       46.4518735625        5.1202827469  TIP3      4819            0.0000000000
     31830      4955  TIP3      H1             41.6967319543       47.1985997249        4.5027475876  TIP3      4819            0.0000000000
     31831      4955  TIP3      H2             41.6982410721       45.7009585922        4.5217309385  TIP3      4819            0.0000000000
     31832      4956  TIP3      OH2            55.5714455582       51.5599148479        1.2384313223  TIP3      4820            0.0000000000
     31833      4956  TIP3      H1             55.4124441381       52.3234721015        0.6260953455  TIP3      4820            0.0000000000
     31834      4956  TIP3      H2             56.2048059160       51.0139022064        0.7377924609  TIP3      4820            0.0000000000
     31835      4957  TIP3      OH2            38.6603581436       49.2635678539       13.4539867278  TIP3      4821            0.0000000000
     31836      4957  TIP3      H1             38.4074033978       49.1096258008       12.5312362301  TIP3      4821            0.0000000000
     31837      4957  TIP3      H2             39.0272526033       48.3708264397       13.6501262590  TIP3      4821            0.0000000000
     31838      4958  TIP3      OH2            38.4485201617       51.7198006457        9.8914764494  TIP3      4822            0.0000000000
     31839      4958  TIP3      H1             39.3536427502       51.4516511959        9.6743099894  TIP3      4822            0.0000000000
     31840      4958  TIP3      H2             38.5853452446       52.3589637806       10.6056534053  TIP3      4822            0.0000000000
     31841      4959  TIP3      OH2            56.4306902707       52.5128550060       16.3079197486  TIP3      4823            0.0000000000
     31842      4959  TIP3      H1             56.2163379451       51.6163672569       16.6042419753  TIP3      4823            0.0000000000
     31843      4959  TIP3      H2             55.5185861948       52.8977993940       16.3449048278  TIP3      4823            0.0000000000
     31844      4960  TIP3      OH2            47.2712542734       51.8899857759       15.0991287337  TIP3      4824            0.0000000000
     31845      4960  TIP3      H1             47.5144889328       52.5237764955       15.7988135102  TIP3      4824            0.0000000000
     31846      4960  TIP3      H2             46.4213912900       51.5124244786       15.4138251033  TIP3      4824            0.0000000000
     31847      4961  TIP3      OH2            47.9347351746       55.6957905050        4.4288208708  TIP3      4825            0.0000000000
     31848      4961  TIP3      H1             48.0321759252       55.8487839857        3.4656656052  TIP3      4825            0.0000000000
     31849      4961  TIP3      H2             47.8303641580       56.6071295270        4.7684917416  TIP3      4825            0.0000000000
     31850      4962  TIP3      OH2            41.6225838871       54.4211990398        6.7098235430  TIP3      4826            0.0000000000
     31851      4962  TIP3      H1             41.8479022785       53.9907030075        7.5634939915  TIP3      4826            0.0000000000
     31852      4962  TIP3      H2             40.7421705273       54.0669929318        6.5099173694  TIP3      4826            0.0000000000
     31853      4963  TIP3      OH2            50.8722038553       55.1381719156        1.7786688480  TIP3      4827            0.0000000000
     31854      4963  TIP3      H1             51.2618323893       54.3415136679        1.3420365635  TIP3      4827            0.0000000000
     31855      4963  TIP3      H2             51.1597922899       55.0047299304        2.6909695126  TIP3      4827            0.0000000000
     31856      4964  TIP3      OH2            50.5473099450       55.1840894151        5.0667647348  TIP3      4828            0.0000000000
     31857      4964  TIP3      H1             49.5752727290       55.1163657589        4.9705986351  TIP3      4828            0.0000000000
     31858      4964  TIP3      H2             50.7533479984       54.4546196815        5.6752848009  TIP3      4828            0.0000000000
     31859      4965  TIP3      OH2            53.5493880068       43.8055565305       16.3644555985  TIP3      4829            0.0000000000
     31860      4965  TIP3      H1             53.0972223205       44.2576670229       15.6223064050  TIP3      4829            0.0000000000
     31861      4965  TIP3      H2             53.4232628291       42.8669405402       16.1352601035  TIP3      4829            0.0000000000
     31862      4966  TIP3      OH2            40.9285206902       50.3006730951       14.3607452217  TIP3      4830            0.0000000000
     31863      4966  TIP3      H1             40.9930968449       49.9516608609       15.2816653965  TIP3      4830            0.0000000000
     31864      4966  TIP3      H2             40.0276783561       50.0128786878       14.1056272803  TIP3      4830            0.0000000000
     31865      4967  TIP3      OH2            43.4422435396       39.0464164588       10.4431542971  TIP3      4831            0.0000000000
     31866      4967  TIP3      H1             42.6313560444       39.2381136018        9.9414088898  TIP3      4831            0.0000000000
     31867      4967  TIP3      H2             43.3313925706       39.6689708473       11.1921478574  TIP3      4831            0.0000000000
     31868      4968  TIP3      OH2            48.2847172859       38.8549508027       13.7462071807  TIP3      4832            0.0000000000
     31869      4968  TIP3      H1             48.7103555264       38.4856445061       14.5413663837  TIP3      4832            0.0000000000
     31870      4968  TIP3      H2             47.3422996828       38.6134930179       13.8741807510  TIP3      4832            0.0000000000
     31871      4969  TIP3      OH2            51.2839235248       42.3493967730       14.3062899472  TIP3      4833            0.0000000000
     31872      4969  TIP3      H1             50.8056525377       41.8458718577       15.0119906891  TIP3      4833            0.0000000000
     31873      4969  TIP3      H2             51.0788660784       43.2776944531       14.5550827538  TIP3      4833            0.0000000000
     31874      4970  TIP3      OH2            52.3317156510       47.7341547448        1.1787201352  TIP3      4834            0.0000000000
     31875      4970  TIP3      H1             52.0571196455       48.1993752618        0.3735050747  TIP3      4834            0.0000000000
     31876      4970  TIP3      H2             53.2984709717       47.8881258429        1.1294685632  TIP3      4834            0.0000000000
     31877      4971  TIP3      OH2            48.0996816540       41.4989901300        1.3106981551  TIP3      4835            0.0000000000
     31878      4971  TIP3      H1             47.5655885284       41.3331467495        2.1121373756  TIP3      4835            0.0000000000
     31879      4971  TIP3      H2             47.9465108006       40.6606168596        0.8692677893  TIP3      4835            0.0000000000
     31880      4972  TIP3      OH2            43.6599700713       43.8124402202       11.7158821027  TIP3      4836            0.0000000000
     31881      4972  TIP3      H1             43.0287898443       43.8869361483       12.4603801577  TIP3      4836            0.0000000000
     31882      4972  TIP3      H2             43.6216940677       44.7290995070       11.3599429679  TIP3      4836            0.0000000000
     31883      4973  TIP3      OH2            43.7015514309       43.8651352997        6.8871906246  TIP3      4837            0.0000000000
     31884      4973  TIP3      H1             43.2554831360       44.6649326027        6.5640536191  TIP3      4837            0.0000000000
     31885      4973  TIP3      H2             44.0108385796       43.4861926096        6.0398874785  TIP3      4837            0.0000000000
     31886      4974  TIP3      OH2            49.5130851343       44.7282138190        5.5045510235  TIP3      4838            0.0000000000
     31887      4974  TIP3      H1             49.0382807414       45.4358233664        5.0161627656  TIP3      4838            0.0000000000
     31888      4974  TIP3      H2             49.8352659720       44.1722718635        4.7689959261  TIP3      4838            0.0000000000
     31889      4975  TIP3      OH2            47.8914109509       44.7649486777       16.5356406460  TIP3      4839            0.0000000000
     31890      4975  TIP3      H1             47.3507786133       43.9625153734       16.7579162934  TIP3      4839            0.0000000000
     31891      4975  TIP3      H2             48.5279022437       44.7794424035       17.2614072710  TIP3      4839            0.0000000000
     31892      4976  TIP3      OH2            49.7996743780       44.0375446700        8.6087800316  TIP3      4840            0.0000000000
     31893      4976  TIP3      H1             49.8934732842       44.9174426178        8.1942673732  TIP3      4840            0.0000000000
     31894      4976  TIP3      H2             49.9218583033       43.4890799727        7.8160754476  TIP3      4840            0.0000000000
     31895      4977  TIP3      OH2            41.2247165291       43.8668929034       13.0833576591  TIP3      4841            0.0000000000
     31896      4977  TIP3      H1             41.5573627966       44.1299329338       13.9536896550  TIP3      4841            0.0000000000
     31897      4977  TIP3      H2             40.7065278959       43.0685011234       13.2979844627  TIP3      4841            0.0000000000
     31898      4978  TIP3      OH2            44.5871266101       41.8117636816        0.6169111755  TIP3      4842            0.0000000000
     31899      4978  TIP3      H1             44.5804385270       41.7091018688        1.5826941004  TIP3      4842            0.0000000000
     31900      4978  TIP3      H2             44.2768744907       42.7145207415        0.4573604687  TIP3      4842            0.0000000000
     31901      4979  TIP3      OH2            38.0381589064       41.0915275474        7.7641525243  TIP3      4843            0.0000000000
     31902      4979  TIP3      H1             38.8296179967       41.0524681188        8.3259008065  TIP3      4843            0.0000000000
     31903      4979  TIP3      H2             38.3282753081       41.6937306107        7.0603476951  TIP3      4843            0.0000000000
     31904      4980  TIP3      OH2            39.0157147416       41.8036456149        2.5555113211  TIP3      4844            0.0000000000
     31905      4980  TIP3      H1             39.6990953301       42.1168596172        1.9337825082  TIP3      4844            0.0000000000
     31906      4980  TIP3      H2             38.6144800469       42.6569339408        2.8026195599  TIP3      4844            0.0000000000
     31907      4981  TIP3      OH2            49.1671115344       45.9899768344       12.6455883817  TIP3      4845            0.0000000000
     31908      4981  TIP3      H1             49.8201470398       45.3889847885       12.2369089846  TIP3      4845            0.0000000000
     31909      4981  TIP3      H2             48.5094538745       45.3588852939       13.0157656185  TIP3      4845            0.0000000000
     31910      4982  TIP3      OH2            46.3534700322       41.3190072000        7.7682076301  TIP3      4846            0.0000000000
     31911      4982  TIP3      H1             45.4224935913       41.4183941232        8.0285334814  TIP3      4846            0.0000000000
     31912      4982  TIP3      H2             46.7555639134       40.8088605286        8.5026549441  TIP3      4846            0.0000000000
     31913      4983  TIP3      OH2            40.6472238850       42.8719034122        6.7661632411  TIP3      4847            0.0000000000
     31914      4983  TIP3      H1             40.1127175571       43.3937154014        6.1262921857  TIP3      4847            0.0000000000
     31915      4983  TIP3      H2             41.1255730239       42.2119378838        6.2199915191  TIP3      4847            0.0000000000
     31916      4984  TIP3      OH2            43.8148596564       42.8545824698        4.2435053209  TIP3      4848            0.0000000000
     31917      4984  TIP3      H1             44.6784186028       43.3383060017        4.3066904800  TIP3      4848            0.0000000000
     31918      4984  TIP3      H2             43.3954635999       43.4787255041        3.6215956103  TIP3      4848            0.0000000000
     31919      4985  TIP3      OH2            50.9347671790       40.8520357307       10.2755621418  TIP3      4849            0.0000000000
     31920      4985  TIP3      H1             50.3990254827       40.6012798460       11.0542356194  TIP3      4849            0.0000000000
     31921      4985  TIP3      H2             50.6116007364       40.2392049697        9.5966374779  TIP3      4849            0.0000000000
     31922      4986  TIP3      OH2            43.1666376532       44.7421722012        1.8996770917  TIP3      4850            0.0000000000
     31923      4986  TIP3      H1             42.8651727769       44.7492293654        0.9714465730  TIP3      4850            0.0000000000
     31924      4986  TIP3      H2             44.1205245678       44.9290892356        1.7890708835  TIP3      4850            0.0000000000
     31925      4987  TIP3      OH2            53.5121695229       56.1193055303       17.3804749743  TIP3      4851            0.0000000000
     31926      4987  TIP3      H1             53.9001436069       56.1739539305       16.4887013747  TIP3      4851            0.0000000000
     31927      4987  TIP3      H2             54.3063699940       56.3943198348       17.8912491451  TIP3      4851            0.0000000000
     31928      4988  TIP3      OH2            41.2322742216       49.0782488876       16.7379957210  TIP3      4852            0.0000000000
     31929      4988  TIP3      H1             41.9739491187       49.1619093279       17.3809103479  TIP3      4852            0.0000000000
     31930      4988  TIP3      H2             40.4944908690       48.8616732130       17.3489930116  TIP3      4852            0.0000000000
     31931      4989  TIP3      OH2            47.0897459386       43.7369702219        9.4408141500  TIP3      4853            0.0000000000
     31932      4989  TIP3      H1             47.9903673470       43.7462349206        9.0754893719  TIP3      4853            0.0000000000
     31933      4989  TIP3      H2             47.0576244250       42.8556591550        9.8420032313  TIP3      4853            0.0000000000
     31934      4990  TIP3      OH2            41.8447789029       40.4492309082        5.8841381527  TIP3      4854            0.0000000000
     31935      4990  TIP3      H1             41.3357616324       39.7706299072        6.3922126923  TIP3      4854            0.0000000000
     31936      4990  TIP3      H2             42.2968085277       39.8948107877        5.2448858984  TIP3      4854            0.0000000000
     31937      4991  TIP3      OH2            45.8406451776       42.4205101777       12.2868563516  TIP3      4855            0.0000000000
     31938      4991  TIP3      H1             45.1791224553       43.0706654552       11.9569655452  TIP3      4855            0.0000000000
     31939      4991  TIP3      H2             46.6068043863       42.9959499574       12.4398680916  TIP3      4855            0.0000000000
     31940      4992  TIP3      OH2            46.6954100338       49.5296427860        4.0159611422  TIP3      4856            0.0000000000
     31941      4992  TIP3      H1             46.3424150211       48.6710766260        3.7296660637  TIP3      4856            0.0000000000
     31942      4992  TIP3      H2             46.2357066759       49.6078649825        4.8867385375  TIP3      4856            0.0000000000
     31943      4993  TIP3      OH2            54.2555058460       48.4216910720       12.5931439140  TIP3      4857            0.0000000000
     31944      4993  TIP3      H1             54.6658981184       48.9084546752       11.8388061739  TIP3      4857            0.0000000000
     31945      4993  TIP3      H2             53.3576238691       48.3203428328       12.2317065516  TIP3      4857            0.0000000000
     31946      4994  TIP3      OH2            50.7557346504       41.6288951193        1.9761593016  TIP3      4858            0.0000000000
     31947      4994  TIP3      H1             49.8125474932       41.6408016016        1.7021318089  TIP3      4858            0.0000000000
     31948      4994  TIP3      H2             50.8595360448       42.5329716670        2.3601548188  TIP3      4858            0.0000000000
     31949      4995  TIP3      OH2            47.8958153860       49.2396634638       14.9276319015  TIP3      4859            0.0000000000
     31950      4995  TIP3      H1             47.5494439824       48.8159522903       15.7296676271  TIP3      4859            0.0000000000
     31951      4995  TIP3      H2             47.7855499611       50.1851783669       15.1513850799  TIP3      4859            0.0000000000
     31952      4996  TIP3      OH2            51.0914647047       43.9480547023        3.2122663329  TIP3      4860            0.0000000000
     31953      4996  TIP3      H1             51.8333075303       43.8609514584        3.8403967133  TIP3      4860            0.0000000000
     31954      4996  TIP3      H2             51.0973715071       44.9239941610        3.0554020153  TIP3      4860            0.0000000000
     31955      4997  TIP3      OH2            41.5651330549       48.3963333124        9.1723368621  TIP3      4861            0.0000000000
     31956      4997  TIP3      H1             42.0100254526       48.1605077311        8.3241009277  TIP3      4861            0.0000000000
     31957      4997  TIP3      H2             41.9805591306       47.7713799020        9.7830488414  TIP3      4861            0.0000000000
     31958      4998  TIP3      OH2            48.9664483272       50.1037667422        2.5098034550  TIP3      4862            0.0000000000
     31959      4998  TIP3      H1             48.7458970445       50.9812798884        2.8666385475  TIP3      4862            0.0000000000
     31960      4998  TIP3      H2             48.2035517375       49.5958790099        2.8592924133  TIP3      4862            0.0000000000
     31961      4999  TIP3      OH2            38.9200568915       46.7963829344       14.5967472877  TIP3      4863            0.0000000000
     31962      4999  TIP3      H1             38.7660845876       46.2846233504       15.4146665506  TIP3      4863            0.0000000000
     31963      4999  TIP3      H2             38.3386349097       46.3443488828       13.9594668531  TIP3      4863            0.0000000000
     31964      5000  TIP3      OH2            45.5746124316       46.2399255930       16.4601872834  TIP3      4864            0.0000000000
     31965      5000  TIP3      H1             45.1928281146       45.7095031124       15.7431556060  TIP3      4864            0.0000000000
     31966      5000  TIP3      H2             46.5071688834       45.9065444236       16.4839508092  TIP3      4864            0.0000000000
     31967      5001  TIP3      OH2            50.6188051837       51.5139040654       14.8621556351  TIP3      4865            0.0000000000
     31968      5001  TIP3      H1             49.7858520356       51.2333649918       14.4702579009  TIP3      4865            0.0000000000
     31969      5001  TIP3      H2             50.2929389299       51.9268150112       15.6914512996  TIP3      4865            0.0000000000
     31970      5002  TIP3      OH2            56.1477163509       43.6548444388        3.3572473370  TIP3      4866            0.0000000000
     31971      5002  TIP3      H1             55.4361441484       43.9256943240        2.7555331257  TIP3      4866            0.0000000000
     31972      5002  TIP3      H2             56.6492643287       44.4920382886        3.3389405615  TIP3      4866            0.0000000000
     31973      5003  TIP3      OH2            56.0479548486       49.2454164258       16.0575463386  TIP3      4867            0.0000000000
     31974      5003  TIP3      H1             55.3534772369       49.8584560155       15.7285514380  TIP3      4867            0.0000000000
     31975      5003  TIP3      H2             56.7025832418       49.2981862210       15.3239153624  TIP3      4867            0.0000000000
     31976      5004  TIP3      OH2            53.3350951974       52.9906106054        3.8825599850  TIP3      4868            0.0000000000
     31977      5004  TIP3      H1             52.7792344140       52.4981924249        4.5262184409  TIP3      4868            0.0000000000
     31978      5004  TIP3      H2             53.1925588066       52.4857881329        3.0658507826  TIP3      4868            0.0000000000
     31979      5005  TIP3      OH2            51.5905398394       47.3608062294       10.5408435030  TIP3      4869            0.0000000000
     31980      5005  TIP3      H1             50.6898681403       47.1868120250       10.2049968269  TIP3      4869            0.0000000000
     31981      5005  TIP3      H2             52.0801873640       46.6532512882       10.0813687951  TIP3      4869            0.0000000000
     31982      5006  TIP3      OH2            43.8428956957       51.9041561128        6.6397042310  TIP3      4870            0.0000000000
     31983      5006  TIP3      H1             44.1129619934       52.8068115186        6.3582374716  TIP3      4870            0.0000000000
     31984      5006  TIP3      H2             42.9023010615       51.9041076698        6.4204761264  TIP3      4870            0.0000000000
     31985      5007  TIP3      OH2            39.7437595806       46.8624444462        1.4535155428  TIP3      4871            0.0000000000
     31986      5007  TIP3      H1             40.2688200978       47.3389165046        2.1319749028  TIP3      4871            0.0000000000
     31987      5007  TIP3      H2             38.8348529597       46.9354599195        1.8040218752  TIP3      4871            0.0000000000
     31988      5008  TIP3      OH2            45.1834022488       49.6111622820        6.3330809171  TIP3      4872            0.0000000000
     31989      5008  TIP3      H1             44.7248601810       50.4833036480        6.4285554945  TIP3      4872            0.0000000000
     31990      5008  TIP3      H2             44.5740092569       49.0002806716        6.7828760862  TIP3      4872            0.0000000000
     31991      5009  TIP3      OH2            45.8775192734       53.5856173128       13.4169770775  TIP3      4873            0.0000000000
     31992      5009  TIP3      H1             46.6072065072       54.1034529069       13.0297628744  TIP3      4873            0.0000000000
     31993      5009  TIP3      H2             46.3988510214       53.0568097490       14.0617968435  TIP3      4873            0.0000000000
     31994      5010  TIP3      OH2            44.1738288358       54.5928074221        5.8543571990  TIP3      4874            0.0000000000
     31995      5010  TIP3      H1             43.2588197878       54.6784489911        6.1885217875  TIP3      4874            0.0000000000
     31996      5010  TIP3      H2             44.5903440472       55.3737778839        6.2687779239  TIP3      4874            0.0000000000
     31997      5011  TIP3      OH2            49.0648373236       49.5713255788       12.2568559633  TIP3      4875            0.0000000000
     31998      5011  TIP3      H1             48.8336450765       49.2951724580       13.1797989718  TIP3      4875            0.0000000000
     31999      5011  TIP3      H2             49.4775963556       48.7463899535       11.9285169687  TIP3      4875            0.0000000000
     32000      5012  TIP3      OH2            52.0138857787       50.6015278012        1.6670176837  TIP3      4876            0.0000000000
     32001      5012  TIP3      H1             52.2549245430       50.2560702771        2.5535525925  TIP3      4876            0.0000000000
     32002      5012  TIP3      H2             51.1021702371       50.2566727616        1.6294504976  TIP3      4876            0.0000000000
     32003      5013  TIP3      OH2            51.8830055452       54.1229686553       14.9653404862  TIP3      4877            0.0000000000
     32004      5013  TIP3      H1             51.2804322393       53.3756693999       14.7712955199  TIP3      4877            0.0000000000
     32005      5013  TIP3      H2             52.0882691227       54.4763770592       14.0767674637  TIP3      4877            0.0000000000
     32006      5014  TIP3      OH2            56.2647231542       54.8283811559        2.1823808509  TIP3      4878            0.0000000000
     32007      5014  TIP3      H1             56.1319827829       54.8600882832        1.2176208113  TIP3      4878            0.0000000000
     32008      5014  TIP3      H2             55.7013635785       55.5853732123        2.4591720512  TIP3      4878            0.0000000000
     32009      5015  TIP3      OH2            40.6824087172       41.2715868281       14.3145843053  TIP3      4879            0.0000000000
     32010      5015  TIP3      H1             40.2738629380       41.6565477610       15.1111225461  TIP3      4879            0.0000000000
     32011      5015  TIP3      H2             40.5621108099       40.3280907099       14.5177288855  TIP3      4879            0.0000000000
     32012      5016  TIP3      OH2            52.6890021729       49.6800726060        3.9944294863  TIP3      4880            0.0000000000
     32013      5016  TIP3      H1             52.4162639231       48.8102490802        4.3744977085  TIP3      4880            0.0000000000
     32014      5016  TIP3      H2             53.6625702690       49.5388417261        3.9541555881  TIP3      4880            0.0000000000
     32015      5017  TIP3      OH2            40.1708149239       53.2119171282       12.5165731516  TIP3      4881            0.0000000000
     32016      5017  TIP3      H1             40.6452054537       52.3777364467       12.3934020297  TIP3      4881            0.0000000000
     32017      5017  TIP3      H2             40.4496907232       53.4504157784       13.4154284435  TIP3      4881            0.0000000000
     32018      5018  TIP3      OH2            44.6039941121       51.0862052766        2.5315536677  TIP3      4882            0.0000000000
     32019      5018  TIP3      H1             45.2491161475       50.4570849297        2.9091711719  TIP3      4882            0.0000000000
     32020      5018  TIP3      H2             44.9685117078       51.9493185683        2.8079251414  TIP3      4882            0.0000000000
     32021      5019  TIP3      OH2            41.0992326241       48.3779057686        3.2006964451  TIP3      4883            0.0000000000
     32022      5019  TIP3      H1             40.3998494080       48.8836531363        3.6826449614  TIP3      4883            0.0000000000
     32023      5019  TIP3      H2             41.6241645422       49.0878294815        2.7811839341  TIP3      4883            0.0000000000
     32024      5020  TIP3      OH2            49.0929690999       41.4277740533       13.1173571870  TIP3      4884            0.0000000000
     32025      5020  TIP3      H1             49.9692440434       41.6171789270       13.4956129931  TIP3      4884            0.0000000000
     32026      5020  TIP3      H2             48.8185828498       40.5938622554       13.5542507018  TIP3      4884            0.0000000000
     32027      5021  TIP3      OH2            50.2825483770       40.3496421258        4.3287872452  TIP3      4885            0.0000000000
     32028      5021  TIP3      H1             50.4386016550       40.9703866692        3.5892409887  TIP3      4885            0.0000000000
     32029      5021  TIP3      H2             50.5160810055       40.8769928730        5.1245368012  TIP3      4885            0.0000000000
     32030      5022  TIP3      OH2            47.5745400847       52.7052429656        3.4883191203  TIP3      4886            0.0000000000
     32031      5022  TIP3      H1             46.8520141646       53.3628238359        3.4711582884  TIP3      4886            0.0000000000
     32032      5022  TIP3      H2             48.0962518920       52.9538215440        2.7026799716  TIP3      4886            0.0000000000
     32033      5023  TIP3      OH2            47.4090001472       42.2223460120        5.4063616849  TIP3      4887            0.0000000000
     32034      5023  TIP3      H1             47.2304249401       43.1538252272        5.1458309323  TIP3      4887            0.0000000000
     32035      5023  TIP3      H2             47.1328278423       42.2081544683        6.3448932052  TIP3      4887            0.0000000000
     32036      5024  TIP3      OH2            47.8833080065       43.9226338670       13.9000253523  TIP3      4888            0.0000000000
     32037      5024  TIP3      H1             47.9454146479       44.1983881678       14.8392273039  TIP3      4888            0.0000000000
     32038      5024  TIP3      H2             48.2917516177       43.0325729832       13.8624022877  TIP3      4888            0.0000000000
     32039      5025  TIP3      OH2            47.7998907388       39.4245073163        5.6370088421  TIP3      4889            0.0000000000
     32040      5025  TIP3      H1             47.4435839186       40.2511240296        6.0265204088  TIP3      4889            0.0000000000
     32041      5025  TIP3      H2             48.6181320497       39.8263940796        5.2694939196  TIP3      4889            0.0000000000
     32042      5026  TIP3      OH2            45.0033427375       53.8541530045        3.1959986833  TIP3      4890            0.0000000000
     32043      5026  TIP3      H1             45.2552393618       54.6842749693        2.7405573990  TIP3      4890            0.0000000000
     32044      5026  TIP3      H2             44.5293995859       54.2203692608        3.9721923883  TIP3      4890            0.0000000000
     32045      5027  TIP3      OH2            43.3760114547       40.4651175951        2.9096496316  TIP3      4891            0.0000000000
     32046      5027  TIP3      H1             43.2884429115       41.3343683626        3.3573216398  TIP3      4891            0.0000000000
     32047      5027  TIP3      H2             44.1887798201       40.1699672616        3.3321710288  TIP3      4891            0.0000000000
     32048      5028  TIP3      OH2            53.5782253050       41.2432922048       15.2384926770  TIP3      4892            0.0000000000
     32049      5028  TIP3      H1             52.6690037461       41.5321874179       15.0016905497  TIP3      4892            0.0000000000
     32050      5028  TIP3      H2             54.0119719900       41.2873003359       14.3655254773  TIP3      4892            0.0000000000
     32051      5029  TIP3      OH2            52.4989378174       44.9666124363        9.0671436440  TIP3      4893            0.0000000000
     32052      5029  TIP3      H1             51.8139004973       44.5000860488        9.5847805447  TIP3      4893            0.0000000000
     32053      5029  TIP3      H2             53.2959116388       44.7489762515        9.6063928150  TIP3      4893            0.0000000000
     32054      5030  TIP3      OH2            41.8549374481       51.2659179367        1.6095125945  TIP3      4894            0.0000000000
     32055      5030  TIP3      H1             42.6920722189       51.5397994046        2.0397624901  TIP3      4894            0.0000000000
     32056      5030  TIP3      H2             42.2007463411       50.6064555114        0.9861032399  TIP3      4894            0.0000000000
     32057      5031  TIP3      OH2            40.2128274673       43.8851300687        0.8958093295  TIP3      4895            0.0000000000
     32058      5031  TIP3      H1             40.3534792726       44.8004901940        1.1868597953  TIP3      4895            0.0000000000
     32059      5031  TIP3      H2             39.3741230703       43.9608045427        0.4196819904  TIP3      4895            0.0000000000
     32060      5032  TIP3      OH2            53.3316996002       54.6489305094       10.6277316321  TIP3      4896            0.0000000000
     32061      5032  TIP3      H1             53.2987949547       55.2628963081        9.8716142720  TIP3      4896            0.0000000000
     32062      5032  TIP3      H2             54.2980125127       54.5142712589       10.6890517489  TIP3      4896            0.0000000000
     32063      5033  TIP3      OH2            40.7733172822       38.5627844016        9.7547400274  TIP3      4897            0.0000000000
     32064      5033  TIP3      H1             40.7839314128       38.4935721562        8.7763620343  TIP3      4897            0.0000000000
     32065      5033  TIP3      H2             40.5042804707       37.6460642627        9.9980868071  TIP3      4897            0.0000000000
     32066      5034  TIP3      OH2            39.2898927499       52.1330109986        5.4214689355  TIP3      4898            0.0000000000
     32067      5034  TIP3      H1             38.7600074402       52.7252163988        5.9679869137  TIP3      4898            0.0000000000
     32068      5034  TIP3      H2             39.4551291109       52.7268570339        4.6508925464  TIP3      4898            0.0000000000
     32069      5035  TIP3      OH2            39.1435795840       55.0770615717       16.6208288019  TIP3      4899            0.0000000000
     32070      5035  TIP3      H1             40.0105331027       54.8151471570       16.9700781960  TIP3      4899            0.0000000000
     32071      5035  TIP3      H2             38.7684648676       54.2175679897       16.3383518307  TIP3      4899            0.0000000000
     32072      5036  TIP3      OH2            48.7126017121       53.5252266567        0.9162981722  TIP3      4900            0.0000000000
     32073      5036  TIP3      H1             48.1074934611       53.2676689037        0.1950264918  TIP3      4900            0.0000000000
     32074      5036  TIP3      H2             49.4861492480       53.7930242618        0.3844541144  TIP3      4900            0.0000000000
     32075      5037  TIP3      OH2            50.2678027162       52.7120164270       17.2771620434  TIP3      4901            0.0000000000
     32076      5037  TIP3      H1             49.7434130711       51.9600673128       17.6405316918  TIP3      4901            0.0000000000
     32077      5037  TIP3      H2             51.1234572196       52.5226079765       17.6813405937  TIP3      4901            0.0000000000
     32078      5038  TIP3      OH2            51.8034291169       52.9772072200        0.5243624586  TIP3      4902            0.0000000000
     32079      5038  TIP3      H1             51.8959221220       52.1235800507        1.0009169206  TIP3      4902            0.0000000000
     32080      5038  TIP3      H2             52.7164280565       53.0791550771        0.1718309186  TIP3      4902            0.0000000000
     32081      5039  TIP3      OH2            38.8417018571       49.2091476204       17.8619107677  TIP3      4903            0.0000000000
     32082      5039  TIP3      H1             38.4627790650       48.3640741138       18.1666246472  TIP3      4903            0.0000000000
     32083      5039  TIP3      H2             38.2594231317       49.3979010922       17.0909932972  TIP3      4903            0.0000000000
     32084      5040  TIP3      OH2            43.4164889348       48.9422707953        0.5781714801  TIP3      4904            0.0000000000
     32085      5040  TIP3      H1             44.0096245722       48.7791935960        1.3315687414  TIP3      4904            0.0000000000
     32086      5040  TIP3      H2             44.0178393792       48.7572501460       -0.1738447335  TIP3      4904            0.0000000000
     32087      5041  TIP3      OH2            45.7738371801       48.8931375811       17.2070621201  TIP3      4905            0.0000000000
     32088      5041  TIP3      H1             45.3539122128       49.4519789016       16.5184571005  TIP3      4905            0.0000000000
     32089      5041  TIP3      H2             45.4214511161       47.9963383302       17.0200378169  TIP3      4905            0.0000000000
     32090      5042  TIP3      OH2            51.2523543231       48.8075058190       14.7584104901  TIP3      4906            0.0000000000
     32091      5042  TIP3      H1             52.1113656906       49.2649919432       14.7053639417  TIP3      4906            0.0000000000
     32092      5042  TIP3      H2             50.7174547773       49.5686394564       15.0421354004  TIP3      4906            0.0000000000
     32093      5043  TIP3      OH2            39.6991867075       46.1258293074       17.6718870691  TIP3      4907            0.0000000000
     32094      5043  TIP3      H1             40.5273869533       45.6430731177       17.5758991714  TIP3      4907            0.0000000000
     32095      5043  TIP3      H2             39.8405003117       46.4871822163       18.5787383145  TIP3      4907            0.0000000000
     32096      5044  TIP3      OH2            44.9390442130       47.3793101250        2.6161372535  TIP3      4908            0.0000000000
     32097      5044  TIP3      H1             44.6814440900       46.6756134666        3.2423020243  TIP3      4908            0.0000000000
     32098      5044  TIP3      H2             45.3585370343       46.8107227844        1.9374137124  TIP3      4908            0.0000000000
     32099      5045  TIP3      OH2            43.7144562155       44.9834175473       14.2342174029  TIP3      4909            0.0000000000
     32100      5045  TIP3      H1             43.0919826583       45.7362390323       14.3762523158  TIP3      4909            0.0000000000
     32101      5045  TIP3      H2             44.4938652086       45.4351618290       13.8406662107  TIP3      4909            0.0000000000
     32102      5046  TIP3      OH2            45.8260347283       45.4964541591        0.7377454967  TIP3      4910            0.0000000000
     32103      5046  TIP3      H1             46.1053628352       45.3936470769       -0.1839986877  TIP3      4910            0.0000000000
     32104      5046  TIP3      H2             46.6911684195       45.4753959658        1.2222577813  TIP3      4910            0.0000000000
     32105      5047  TIP3      OH2            49.1098594881       47.7414983024       18.3267260594  TIP3      4911            0.0000000000
     32106      5047  TIP3      H1             49.7671052563       47.3377797455       17.7343277873  TIP3      4911            0.0000000000
     32107      5047  TIP3      H2             48.7725023550       46.9518662241       18.7912732086  TIP3      4911            0.0000000000
     32108      5048  TIP3      OH2            54.8320503627       48.3366638826       85.0989734787  TIP3      4912            0.0000000000
     32109      5048  TIP3      H1             54.3600902488       48.2565254409       84.2417418569  TIP3      4912            0.0000000000
     32110      5048  TIP3      H2             54.9249106651       49.2908402899       85.1790970407  TIP3      4912            0.0000000000
     32111      5049  TIP3      OH2            43.9790202970       42.6464138380       15.5088408134  TIP3      4913            0.0000000000
     32112      5049  TIP3      H1             44.2650968372       41.9030883954       14.9323728774  TIP3      4913            0.0000000000
     32113      5049  TIP3      H2             43.9211138301       43.4089092895       14.8900203316  TIP3      4913            0.0000000000
     32114      5050  TIP3      OH2            44.6117744638       40.6110208366       13.7060620598  TIP3      4914            0.0000000000
     32115      5050  TIP3      H1             45.1553229213       41.2259177384       13.1464843509  TIP3      4914            0.0000000000
     32116      5050  TIP3      H2             43.7731832888       40.6136528039       13.2057522655  TIP3      4914            0.0000000000
     32117      5051  TIP3      OH2            45.8652835219       46.4801974996       13.3998032868  TIP3      4915            0.0000000000
     32118      5051  TIP3      H1             46.7630068914       46.8074745958       13.2410240714  TIP3      4915            0.0000000000
     32119      5051  TIP3      H2             45.3135029158       47.2516005646       13.1539160767  TIP3      4915            0.0000000000
     32120      5052  TIP3      OH2            51.4004258281       44.3208826734       18.7380504343  TIP3      4916            0.0000000000
     32121      5052  TIP3      H1             50.6226574102       43.7392219459       18.7164288149  TIP3      4916            0.0000000000
     32122      5052  TIP3      H2             52.1444526591       43.7014912496       18.6688876975  TIP3      4916            0.0000000000
     32123      5053  TIP3      OH2            51.5449663836       46.7908784000       16.6272734400  TIP3      4917            0.0000000000
     32124      5053  TIP3      H1             51.5525880043       47.5060392914       15.9637933048  TIP3      4917            0.0000000000
     32125      5053  TIP3      H2             52.4890674361       46.7287229812       16.8522829082  TIP3      4917            0.0000000000
     32126      5054  TIP3      OH2            42.4435490461       43.2703283281       17.6213899488  TIP3      4918            0.0000000000
     32127      5054  TIP3      H1             41.6061633032       42.8157876772       17.4084731783  TIP3      4918            0.0000000000
     32128      5054  TIP3      H2             43.0261363087       43.0158426446       16.8760647668  TIP3      4918            0.0000000000
     32129      5055  TIP3      OH2            45.5906072466       38.1492283644       13.4221176604  TIP3      4919            0.0000000000
     32130      5055  TIP3      H1             45.2835697691       39.0779945810       13.5481320347  TIP3      4919            0.0000000000
     32131      5055  TIP3      H2             44.7579733236       37.7168261124       13.1936810924  TIP3      4919            0.0000000000
     32132      5056  TIP3      OH2            46.1430777349       42.6927760478       17.0642277327  TIP3      4920            0.0000000000
     32133      5056  TIP3      H1             46.0432141983       42.0402642126       17.7715403084  TIP3      4920            0.0000000000
     32134      5056  TIP3      H2             45.2917742876       42.5873296380       16.5859706709  TIP3      4920            0.0000000000
     32135      5057  TIP3      OH2            49.6642139174       41.1397710306       16.1441810684  TIP3      4921            0.0000000000
     32136      5057  TIP3      H1             48.7248543008       41.3446407698       16.2878899849  TIP3      4921            0.0000000000
     32137      5057  TIP3      H2             49.9475782837       41.2134176859       17.0811490905  TIP3      4921            0.0000000000
     32138      5058  TIP3      OH2            51.7169728491       40.5974816025       18.5366560692  TIP3      4922            0.0000000000
     32139      5058  TIP3      H1             51.3919282528       39.6903824388       18.4871296544  TIP3      4922            0.0000000000
     32140      5058  TIP3      H2             50.9557856533       41.0574333346       18.9715018600  TIP3      4922            0.0000000000
     32141      5059  TIP3      OH2            40.4014864586       41.6153078056       17.2332858202  TIP3      4923            0.0000000000
     32142      5059  TIP3      H1             40.4500291051       40.7115927713       16.8644873117  TIP3      4923            0.0000000000
     32143      5059  TIP3      H2             40.5236353891       41.3966378915       18.2004462465  TIP3      4923            0.0000000000
     32144      5060  TIP3      OH2            45.3350055271       37.8538404124       16.1466121719  TIP3      4924            0.0000000000
     32145      5060  TIP3      H1             46.0021911833       37.1482742190       16.2504393439  TIP3      4924            0.0000000000
     32146      5060  TIP3      H2             45.3507766432       37.9656003068       15.1751856954  TIP3      4924            0.0000000000
     32147      5061  TIP3      OH2            45.7939757329       39.7287900393       18.2098415920  TIP3      4925            0.0000000000
     32148      5061  TIP3      H1             45.5698331691       39.0819941105       17.5078268242  TIP3      4925            0.0000000000
     32149      5061  TIP3      H2             44.9268874332       40.0872701289       18.4713228464  TIP3      4925            0.0000000000
     32150      5062  TIP3      OH2            45.5135439952       56.2391460584        1.9970794942  TIP3      4926            0.0000000000
     32151      5062  TIP3      H1             46.3674826410       56.6819767105        2.1455893802  TIP3      4926            0.0000000000
     32152      5062  TIP3      H2             45.5679007629       56.0871927950        1.0448266457  TIP3      4926            0.0000000000
     32153      5063  TIP3      OH2            38.9279764159       50.6843377607        1.3517345180  TIP3      4927            0.0000000000
     32154      5063  TIP3      H1             39.8931691696       50.8275525874        1.3053365430  TIP3      4927            0.0000000000
     32155      5063  TIP3      H2             38.7520132164       50.4330385556        0.4231806322  TIP3      4927            0.0000000000
     32156      5064  TIP3      OH2            38.2930046596       55.9614894993        6.2530533461  TIP3      4928            0.0000000000
     32157      5064  TIP3      H1             37.4896878527       55.5423763603        5.8708731697  TIP3      4928            0.0000000000
     32158      5064  TIP3      H2             38.4795527629       55.3094828764        6.9682896352  TIP3      4928            0.0000000000
     32159      5065  TIP3      OH2            38.5184896507       54.1767170656        8.1745870243  TIP3      4929            0.0000000000
     32160      5065  TIP3      H1             38.0404795302       53.3442314200        8.3262825633  TIP3      4929            0.0000000000
     32161      5065  TIP3      H2             38.3403311239       54.6119208590        9.0443249669  TIP3      4929            0.0000000000
     32162      5066  TIP3      OH2            56.1336035495       54.9146282633       10.8193867950  TIP3      4930            0.0000000000
     32163      5066  TIP3      H1             56.2853059956       54.8430186295       11.7762839046  TIP3      4930            0.0000000000
     32164      5066  TIP3      H2             56.6173499420       55.7253013200       10.6155723477  TIP3      4930            0.0000000000
     32165      5067  TIP3      OH2            55.7962116138       54.3593296765       13.7204946009  TIP3      4931            0.0000000000
     32166      5067  TIP3      H1             55.3746180825       53.5419696965       13.3628547610  TIP3      4931            0.0000000000
     32167      5067  TIP3      H2             56.1352903097       54.0343391740       14.5741236560  TIP3      4931            0.0000000000
     32168      5068  TIP3      OH2            54.4769696796       50.2190334724       18.8764531610  TIP3      4932            0.0000000000
     32169      5068  TIP3      H1             53.6104332606       50.5083494424       19.2480190593  TIP3      4932            0.0000000000
     32170      5068  TIP3      H2             55.0149965071       51.0199522171       19.0684051900  TIP3      4932            0.0000000000
     32171      5069  TIP3      OH2            55.1597088237       48.7140933514        3.7723255441  TIP3      4933            0.0000000000
     32172      5069  TIP3      H1             56.0938790063       48.9549697923        3.9241820891  TIP3      4933            0.0000000000
     32173      5069  TIP3      H2             55.0583381062       47.9661178741        4.3898573687  TIP3      4933            0.0000000000
     32174      5070  TIP3      OH2            55.8265798775       46.6309506295        5.8916739657  TIP3      4934            0.0000000000
     32175      5070  TIP3      H1             55.1235744270       46.0331684242        6.2470207046  TIP3      4934            0.0000000000
     32176      5070  TIP3      H2             55.8063043980       47.3546965414        6.5351327851  TIP3      4934            0.0000000000
     32177      5071  TIP3      OH2            55.5322012736       49.3191324356       10.4738086098  TIP3      4935            0.0000000000
     32178      5071  TIP3      H1             56.2789980318       48.6878375089       10.4299409685  TIP3      4935            0.0000000000
     32179      5071  TIP3      H2             55.9373373505       50.1326805471       10.1191139531  TIP3      4935            0.0000000000
     32180      5072  TIP3      OH2            54.4040165463       52.1820789218       12.9456103351  TIP3      4936            0.0000000000
     32181      5072  TIP3      H1             53.5790491042       52.5039920583       13.3344305997  TIP3      4936            0.0000000000
     32182      5072  TIP3      H2             54.0898299499       51.8964125552       12.0547467383  TIP3      4936            0.0000000000
     32183      5073  TIP3      OH2            56.4465840914       46.3276724808        2.2799160799  TIP3      4937            0.0000000000
     32184      5073  TIP3      H1             55.6913623458       46.8147369370        1.8932046163  TIP3      4937            0.0000000000
     32185      5073  TIP3      H2             56.6564773406       46.8695476751        3.0561516277  TIP3      4937            0.0000000000
     32186      5074  TIP3      OH2            53.8753679956       43.7425553421        0.9201482617  TIP3      4938            0.0000000000
     32187      5074  TIP3      H1             54.2364801533       44.3090045212        0.2323488976  TIP3      4938            0.0000000000
     32188      5074  TIP3      H2             53.9376040496       42.8572348285        0.5073262719  TIP3      4938            0.0000000000
     32189      5075  TIP3      OH2            54.0832279465       44.8223901395        6.8175558716  TIP3      4939            0.0000000000
     32190      5075  TIP3      H1             53.6414623817       44.1382257326        6.2802077082  TIP3      4939            0.0000000000
     32191      5075  TIP3      H2             53.5095803001       44.8663042853        7.6158609165  TIP3      4939            0.0000000000
     32192      5076  TIP3      OH2            38.6914320522       47.5994285328       10.7923680253  TIP3      4940            0.0000000000
     32193      5076  TIP3      H1             38.7215794529       47.1971781120        9.8962118559  TIP3      4940            0.0000000000
     32194      5076  TIP3      H2             39.5631961063       47.2945240234       11.1446513665  TIP3      4940            0.0000000000
     32195      5077  TIP3      OH2            54.4101437791       47.0560233995       16.3192932087  TIP3      4941            0.0000000000
     32196      5077  TIP3      H1             55.1486456793       46.4388391965       16.2558971147  TIP3      4941            0.0000000000
     32197      5077  TIP3      H2             54.8405117361       47.9474937642       16.2387063392  TIP3      4941            0.0000000000
     32198      5078  TIP3      OH2            56.0251560938       44.4416552188       16.9428760594  TIP3      4942            0.0000000000
     32199      5078  TIP3      H1             55.0505478749       44.3202433940       16.8059703977  TIP3      4942            0.0000000000
     32200      5078  TIP3      H2             56.2991608002       43.4924883468       16.8559671008  TIP3      4942            0.0000000000
     32201      5079  TIP3      OH2            53.8893591078       41.3002135599       -0.2418924096  TIP3      4943            0.0000000000
     32202      5079  TIP3      H1             54.2998289949       40.6835644969        0.3915478766  TIP3      4943            0.0000000000
     32203      5079  TIP3      H2             52.9484162921       41.2496191083        0.0160673223  TIP3      4943            0.0000000000
     32204      5080  TIP3      OH2            53.3236464252       43.0731652537        4.8690499681  TIP3      4944            0.0000000000
     32205      5080  TIP3      H1             53.4391482041       42.3093403210        5.4699107144  TIP3      4944            0.0000000000
     32206      5080  TIP3      H2             53.8076457355       42.7443882528        4.0942943146  TIP3      4944            0.0000000000
     32207      5081  TIP3      OH2            54.2224499778       43.8062826766       10.7588695708  TIP3      4945            0.0000000000
     32208      5081  TIP3      H1             55.2082760623       43.9104302545       10.8196623479  TIP3      4945            0.0000000000
     32209      5081  TIP3      H2             54.0410046452       43.7566002688       11.7154954090  TIP3      4945            0.0000000000
     32210      5082  TIP3      OH2            54.4576508718       44.2033111958       13.4209593520  TIP3      4946            0.0000000000
     32211      5082  TIP3      H1             53.5592287775       44.5349887394       13.6183833468  TIP3      4946            0.0000000000
     32212      5082  TIP3      H2             54.9144616302       45.0029981600       13.0637815660  TIP3      4946            0.0000000000
     32213      5083  TIP3      OH2            37.9694776364       42.4168010493       16.8078360601  TIP3      4947            0.0000000000
     32214      5083  TIP3      H1             38.8807998978       42.3196991753       17.1607164345  TIP3      4947            0.0000000000
     32215      5083  TIP3      H2             37.4753161705       41.7942775223       17.3506392079  TIP3      4947            0.0000000000
     32216      5084  TIP3      OH2            56.9667209592       38.6010043816       18.7253670148  TIP3      4948            0.0000000000
     32217      5084  TIP3      H1             57.4130855857       38.0770838537       18.0419037279  TIP3      4948            0.0000000000
     32218      5084  TIP3      H2             56.4926415502       39.2651784265       18.1644028212  TIP3      4948            0.0000000000
     32219      5085  TIP3      OH2            53.6111094321       40.1959016477        5.6053022282  TIP3      4949            0.0000000000
     32220      5085  TIP3      H1             54.3374314767       39.7822270068        6.1188093699  TIP3      4949            0.0000000000
     32221      5085  TIP3      H2             53.4284833307       39.5111377594        4.9335422363  TIP3      4949            0.0000000000
     32222      5086  TIP3      OH2            39.6259541187       40.9258657600       10.3913571917  TIP3      4950            0.0000000000
     32223      5086  TIP3      H1             40.0172562617       40.0179291535       10.3860709944  TIP3      4950            0.0000000000
     32224      5086  TIP3      H2             40.4106224670       41.5007377532       10.3264410982  TIP3      4950            0.0000000000
     32225      5087  TIP3      OH2            38.1435813522       43.7806280148       11.1031141996  TIP3      4951            0.0000000000
     32226      5087  TIP3      H1             38.6222386601       43.3596078218       10.3636292967  TIP3      4951            0.0000000000
     32227      5087  TIP3      H2             38.4927939387       44.6759574478       11.0118174742  TIP3      4951            0.0000000000
     32228      5088  TIP3      OH2            55.4862110944       40.0129223707       17.0364133839  TIP3      4952            0.0000000000
     32229      5088  TIP3      H1             54.6502904878       40.5035874751       16.9465042535  TIP3      4952            0.0000000000
     32230      5088  TIP3      H2             55.5555957069       39.6653445819       16.1267191274  TIP3      4952            0.0000000000
     32231      5089  TIP3      OH2            55.6008950029       40.3798124300        1.9684515453  TIP3      4953            0.0000000000
     32232      5089  TIP3      H1             56.0558595222       40.2300617277        2.8340820329  TIP3      4953            0.0000000000
     32233      5089  TIP3      H2             55.4222401442       41.3306122891        2.0029388397  TIP3      4953            0.0000000000
     32234      5090  TIP3      OH2            38.0941048627       40.1309523217        4.6207099694  TIP3      4954            0.0000000000
     32235      5090  TIP3      H1             37.2233075100       40.4710337762        4.8916600026  TIP3      4954            0.0000000000
     32236      5090  TIP3      H2             38.2283661733       40.5704469286        3.7566380108  TIP3      4954            0.0000000000
     32237      5091  TIP3      OH2            53.6359531494       54.9181906857        7.2026201107  TIP3      4955            0.0000000000
     32238      5091  TIP3      H1             54.2654611791       55.1020497684        6.4884860307  TIP3      4955            0.0000000000
     32239      5091  TIP3      H2             53.7673060726       55.6784562124        7.8120632852  TIP3      4955            0.0000000000
     32240      5092  TIP3      OH2            38.2521007485       38.7168069501       13.1597848543  TIP3      4956            0.0000000000
     32241      5092  TIP3      H1             37.5216030792       38.4433370196       13.7466097397  TIP3      4956            0.0000000000
     32242      5092  TIP3      H2             37.8948421227       39.5262292352       12.7567552959  TIP3      4956            0.0000000000
     32243      5093  TIP3      OH2            40.3517781868       52.1363318393       16.9312609906  TIP3      4957            0.0000000000
     32244      5093  TIP3      H1             39.4541679831       52.1589773202       16.5701326746  TIP3      4957            0.0000000000
     32245      5093  TIP3      H2             40.3300006231       51.3608217823       17.5073450854  TIP3      4957            0.0000000000
     32246      5094  TIP3      OH2            43.0836228074       53.3898227670       13.4234171211  TIP3      4958            0.0000000000
     32247      5094  TIP3      H1             43.2181066006       54.3509006816       13.2380892234  TIP3      4958            0.0000000000
     32248      5094  TIP3      H2             44.0264096677       53.1369413092       13.5158097396  TIP3      4958            0.0000000000
     32249      5095  TIP3      OH2            47.6737306218       54.5820099685       16.1478956847  TIP3      4959            0.0000000000
     32250      5095  TIP3      H1             47.5118243054       54.3917250930       17.0906096312  TIP3      4959            0.0000000000
     32251      5095  TIP3      H2             48.5916969396       54.9188388733       16.1569166482  TIP3      4959            0.0000000000
     32252      5096  TIP3      OH2            50.0016646115       56.1133807309       15.6849354368  TIP3      4960            0.0000000000
     32253      5096  TIP3      H1             50.6661497709       55.5366439428       15.2525388807  TIP3      4960            0.0000000000
     32254      5096  TIP3      H2             50.5473199032       56.7920426736       16.1145162665  TIP3      4960            0.0000000000
     32255      5097  TIP3      OH2            54.9358238805       38.2363449896       14.8251436571  TIP3      4961            0.0000000000
     32256      5097  TIP3      H1             54.2116835125       38.5227126572       14.2543835002  TIP3      4961            0.0000000000
     32257      5097  TIP3      H2             55.1411527363       37.3396079351       14.4748430195  TIP3      4961            0.0000000000
     32258      5098  TIP3      OH2            40.6968120350       56.6580434550       13.2044505421  TIP3      4962            0.0000000000
     32259      5098  TIP3      H1             39.9153543261       57.0525742389       12.7692604018  TIP3      4962            0.0000000000
     32260      5098  TIP3      H2             40.5445017681       56.9296618112       14.1219525911  TIP3      4962            0.0000000000
     32261      5099  TIP3      OH2            43.2434420149       55.9258866369       12.5689786847  TIP3      4963            0.0000000000
     32262      5099  TIP3      H1             42.3064143350       56.1272688566       12.8288606659  TIP3      4963            0.0000000000
     32263      5099  TIP3      H2             43.1728476529       56.0669312676       11.6129928856  TIP3      4963            0.0000000000
     32264      5100  TIP3      OH2            47.8487316586       55.4808639982       11.7345574212  TIP3      4964            0.0000000000
     32265      5100  TIP3      H1             47.2950951123       55.8172387198       11.0089732025  TIP3      4964            0.0000000000
     32266      5100  TIP3      H2             47.9618907609       56.2827272272       12.2658760637  TIP3      4964            0.0000000000
     32267      5101  TIP3      OH2            49.9750539155       54.2889776950       12.8810520780  TIP3      4965            0.0000000000
     32268      5101  TIP3      H1             49.2733997306       54.7072099299       12.3317237693  TIP3      4965            0.0000000000
     32269      5101  TIP3      H2             50.6894160016       54.9368148983       12.7731241884  TIP3      4965            0.0000000000
     32270      5102  TIP3      OH2            52.5133867724       56.0774751112       12.9236547690  TIP3      4966            0.0000000000
     32271      5102  TIP3      H1             52.6141775728       57.0346581608       12.8013156404  TIP3      4966            0.0000000000
     32272      5102  TIP3      H2             52.7969908654       55.7400938274       12.0418126779  TIP3      4966            0.0000000000
     32273      5103  TIP3      OH2            40.7690119033       55.0588552904       10.5814268644  TIP3      4967            0.0000000000
     32274      5103  TIP3      H1             40.5608432720       54.4121858282       11.2915539083  TIP3      4967            0.0000000000
     32275      5103  TIP3      H2             41.4220086889       54.5643468486       10.0522406184  TIP3      4967            0.0000000000
     32276      5104  TIP3      OH2            42.6452369230       53.4689977897        9.1172050638  TIP3      4968            0.0000000000
     32277      5104  TIP3      H1             42.4848105089       52.5518452844        9.4251097209  TIP3      4968            0.0000000000
     32278      5104  TIP3      H2             43.5401217226       53.6094969632        9.4851168584  TIP3      4968            0.0000000000
     32279      5105  TIP3      OH2            44.9651203296       53.7912511992       10.4931394332  TIP3      4969            0.0000000000
     32280      5105  TIP3      H1             45.1702603593       52.8401792896       10.3826013900  TIP3      4969            0.0000000000
     32281      5105  TIP3      H2             45.0913334045       53.9150416058       11.4489315050  TIP3      4969            0.0000000000
     32282      5106  TIP3      OH2            47.5905648737       39.7954743829        9.5662793865  TIP3      4970            0.0000000000
     32283      5106  TIP3      H1             46.9268844805       39.0793373886        9.6766952571  TIP3      4970            0.0000000000
     32284      5106  TIP3      H2             48.3513076375       39.3116660471        9.2386582921  TIP3      4970            0.0000000000
     32285      5107  TIP3      OH2            53.3839823246       38.3167853237        9.0305862231  TIP3      4971            0.0000000000
     32286      5107  TIP3      H1             53.9778707845       38.8170800578        8.4300557594  TIP3      4971            0.0000000000
     32287      5107  TIP3      H2             52.5486160586       38.2692629086        8.5021542232  TIP3      4971            0.0000000000
     32288      5108  TIP3      OH2            55.3538215590       38.9109338539        7.2020771680  TIP3      4972            0.0000000000
     32289      5108  TIP3      H1             56.0586503699       38.3877237332        6.7617900145  TIP3      4972            0.0000000000
     32290      5108  TIP3      H2             55.8551153840       39.6828887926        7.5625117301  TIP3      4972            0.0000000000
     32291      5109  TIP3      OH2            40.7580690830       38.1727111217        6.9962901557  TIP3      4973            0.0000000000
     32292      5109  TIP3      H1             39.9446104931       38.0424788821        6.4679540063  TIP3      4973            0.0000000000
     32293      5109  TIP3      H2             41.1848111004       37.2884977292        6.8818418569  TIP3      4973            0.0000000000
     32294      5110  TIP3      OH2            39.4414426046       38.1332618991        2.7407296299  TIP3      4974            0.0000000000
     32295      5110  TIP3      H1             39.9585306074       38.8141357985        2.2544836230  TIP3      4974            0.0000000000
     32296      5110  TIP3      H2             38.8920652832       38.6712628914        3.3399939391  TIP3      4974            0.0000000000
     32297      5111  TIP3      OH2            45.1597220066       38.1216719854        6.8064367528  TIP3      4975            0.0000000000
     32298      5111  TIP3      H1             46.0693739609       38.0516676364        6.4867528903  TIP3      4975            0.0000000000
     32299      5111  TIP3      H2             45.2534119237       38.5306044642        7.6834994955  TIP3      4975            0.0000000000
     32300      5112  TIP3      OH2            51.0653757945       38.2546416986        7.5992484194  TIP3      4976            0.0000000000
     32301      5112  TIP3      H1             50.5390677002       38.5243435097        6.8327087071  TIP3      4976            0.0000000000
     32302      5112  TIP3      H2             50.5279745083       37.5252979692        7.9906564111  TIP3      4976            0.0000000000
     32303      5113  TIP3      OH2            52.1128295496       38.0776532060        4.0942064395  TIP3      4977            0.0000000000
     32304      5113  TIP3      H1             51.3997285920       38.7229814827        3.9485656846  TIP3      4977            0.0000000000
     32305      5113  TIP3      H2             51.6073740517       37.2542163599        4.2857449007  TIP3      4977            0.0000000000
     32306      5114  TIP3      OH2            39.2171037345       54.0588128748        3.5986684768  TIP3      4978            0.0000000000
     32307      5114  TIP3      H1             38.3916105761       54.1451732662        3.0767178472  TIP3      4978            0.0000000000
     32308      5114  TIP3      H2             39.4736578163       54.9944251418        3.5544745834  TIP3      4978            0.0000000000
     32309      5115  TIP3      OH2            41.0906061607       39.6430038650        1.1426791962  TIP3      4979            0.0000000000
     32310      5115  TIP3      H1             41.8254599476       39.0107566991        1.0459281471  TIP3      4979            0.0000000000
     32311      5115  TIP3      H2             41.5132492336       40.3600574569        1.6291879626  TIP3      4979            0.0000000000
     32312      5116  TIP3      OH2            46.5959169683       40.3296436420        3.4123732076  TIP3      4980            0.0000000000
     32313      5116  TIP3      H1             46.9209761626       39.8614080895        4.2019176366  TIP3      4980            0.0000000000
     32314      5116  TIP3      H2             46.6011055999       41.2244153903        3.8088804274  TIP3      4980            0.0000000000
     32315      5117  TIP3      OH2            48.3815919063       56.0324641233        1.8272354077  TIP3      4981            0.0000000000
     32316      5117  TIP3      H1             49.3185827786       56.1940367199        1.6012598366  TIP3      4981            0.0000000000
     32317      5117  TIP3      H2             48.3963436637       55.0706260057        1.6454215488  TIP3      4981            0.0000000000
     32318      5118  TIP3      OH2            55.1522223070       54.5902432223        4.9123877274  TIP3      4982            0.0000000000
     32319      5118  TIP3      H1             54.4057979962       54.0303504696        4.5777407033  TIP3      4982            0.0000000000
     32320      5118  TIP3      H2             55.0140893071       55.3557466357        4.3121798410  TIP3      4982            0.0000000000
     32321      5119  TIP3      OH2            40.2496142583       39.0050071253       16.0418776838  TIP3      4983            0.0000000000
     32322      5119  TIP3      H1             39.6319535228       38.2977390142       16.2580542337  TIP3      4983            0.0000000000
     32323      5119  TIP3      H2             41.0011968946       38.7281047294       16.6273656420  TIP3      4983            0.0000000000
     32324      5120  TIP3      OH2            42.1993502305       38.2041741629       17.6504177768  TIP3      4984            0.0000000000
     32325      5120  TIP3      H1             43.1367453434       37.9802997213       17.7192422711  TIP3      4984            0.0000000000
     32326      5120  TIP3      H2             41.7865186743       37.7566693530       18.4063307521  TIP3      4984            0.0000000000
     32327      5121  TIP3      OH2            41.3419770481       55.6157974238        1.1016456021  TIP3      4985            0.0000000000
     32328      5121  TIP3      H1             40.6531074219       55.8745146831        1.7498331944  TIP3      4985            0.0000000000
     32329      5121  TIP3      H2             41.4195753346       54.6652879416        1.2213368563  TIP3      4985            0.0000000000
     32330      5122  TIP3      OH2            50.9058638665       37.6091843753       18.3344749807  TIP3      4986            0.0000000000
     32331      5122  TIP3      H1             51.1862960534       37.7895357644       19.2438331468  TIP3      4986            0.0000000000
     32332      5122  TIP3      H2             51.7442709665       37.4816430889       17.8423907280  TIP3      4986            0.0000000000
     32333      5123  TIP3      OH2            54.0330189628       53.5976896242       16.4881732378  TIP3      4987            0.0000000000
     32334      5123  TIP3      H1             53.1858842525       53.4398322508       16.0173410674  TIP3      4987            0.0000000000
     32335      5123  TIP3      H2             53.8518381339       54.4530041572       16.9186575204  TIP3      4987            0.0000000000
     32336      5124  TIP3      OH2            59.9059293621       46.5476927451       11.8062796802  TIP3      4988            0.0000000000
     32337      5124  TIP3      H1             60.0812114851       45.6139176637       11.9727084346  TIP3      4988            0.0000000000
     32338      5124  TIP3      H2             60.4958440327       46.9686106724       12.4604135962  TIP3      4988            0.0000000000
     32339      5125  TIP3      OH2            60.8180014533       50.9697917384        9.7699056405  TIP3      4989            0.0000000000
     32340      5125  TIP3      H1             60.6833460965       50.0004247722        9.6305009015  TIP3      4989            0.0000000000
     32341      5125  TIP3      H2             61.7918805567       50.9944364520        9.7270525878  TIP3      4989            0.0000000000
     32342      5126  TIP3      OH2            57.4296955534       44.3507842725        5.7219471632  TIP3      4990            0.0000000000
     32343      5126  TIP3      H1             56.9007851072       45.0331641315        6.1813707764  TIP3      4990            0.0000000000
     32344      5126  TIP3      H2             56.7526295250       43.9914721456        5.1154996930  TIP3      4990            0.0000000000
     32345      5127  TIP3      OH2            58.1214103689       46.6750302871        8.3560153006  TIP3      4991            0.0000000000
     32346      5127  TIP3      H1             58.5744214321       45.8118896377        8.4094864077  TIP3      4991            0.0000000000
     32347      5127  TIP3      H2             58.6751763591       47.1755661891        7.7421299024  TIP3      4991            0.0000000000
     32348      5128  TIP3      OH2             0.0894018986       49.4824322018       11.5856015657  TIP3      4992            0.0000000000
     32349      5128  TIP3      H1              0.4490221851       48.6249271381       11.2450960648  TIP3      4992            0.0000000000
     32350      5128  TIP3      H2              0.4982951068       50.1349648270       10.9965699824  TIP3      4992            0.0000000000
     32351      5129  TIP3      OH2            61.9126571445       41.4288312287        7.9266302732  TIP3      4993            0.0000000000
     32352      5129  TIP3      H1             62.2380457067       42.1966879000        7.4053449827  TIP3      4993            0.0000000000
     32353      5129  TIP3      H2             61.5177588598       40.8767090971        7.2203488249  TIP3      4993            0.0000000000
     32354      5130  TIP3      OH2            58.5018011763       43.8564962825        8.6760347845  TIP3      4994            0.0000000000
     32355      5130  TIP3      H1             59.1094297889       43.3164336782        9.2036480015  TIP3      4994            0.0000000000
     32356      5130  TIP3      H2             58.9656691585       43.8543192226        7.8171379991  TIP3      4994            0.0000000000
     32357      5131  TIP3      OH2            63.9733803365       45.3589740350        8.3969072697  TIP3      4995            0.0000000000
     32358      5131  TIP3      H1             64.8410867853       44.9837605053        8.6189057892  TIP3      4995            0.0000000000
     32359      5131  TIP3      H2             63.5552427803       44.5799312668        7.9815529862  TIP3      4995            0.0000000000
     32360      5132  TIP3      OH2            61.0292926573       40.6484649325       12.2856075757  TIP3      4996            0.0000000000
     32361      5132  TIP3      H1             60.7636425315       41.1581658453       11.4964256746  TIP3      4996            0.0000000000
     32362      5132  TIP3      H2             60.2506047746       40.8350824230       12.8490562551  TIP3      4996            0.0000000000
     32363      5133  TIP3      OH2            63.8044059145       48.3517908482       12.4263241777  TIP3      4997            0.0000000000
     32364      5133  TIP3      H1             63.0845549943       49.0097251598       12.5702864053  TIP3      4997            0.0000000000
     32365      5133  TIP3      H2             64.4838399328       48.9348934016       12.0240489445  TIP3      4997            0.0000000000
     32366      5134  TIP3      OH2            60.7938993739       42.4647322541       10.2183056943  TIP3      4998            0.0000000000
     32367      5134  TIP3      H1             61.5180149447       42.9606427771       10.6716522873  TIP3      4998            0.0000000000
     32368      5134  TIP3      H2             61.2474703944       42.1692021749        9.3909289458  TIP3      4998            0.0000000000
     32369      5135  TIP3      OH2            61.8998476272       50.2487562430       12.8008747684  TIP3      4999            0.0000000000
     32370      5135  TIP3      H1             61.5782708384       50.7956668143       12.0659529451  TIP3      4999            0.0000000000
     32371      5135  TIP3      H2             61.1439294529       50.3132009194       13.4306562236  TIP3      4999            0.0000000000
     32372      5136  TIP3      OH2            57.8025359073       49.3623570612        3.9464641030  TIP3      5000            0.0000000000
     32373      5136  TIP3      H1             58.0202148121       49.7394738962        3.0698682093  TIP3      5000            0.0000000000
     32374      5136  TIP3      H2             57.9929913841       50.1100858530        4.5575316297  TIP3      5000            0.0000000000
     32375      5137  TIP3      OH2            64.7431268114       38.1820375818        9.8118919340  TIP3      5001            0.0000000000
     32376      5137  TIP3      H1             64.7902022314       37.3907773840       10.3564741362  TIP3      5001            0.0000000000
     32377      5137  TIP3      H2             63.8786335329       38.5511947662       10.1174206801  TIP3      5001            0.0000000000
     32378      5138  TIP3      OH2            62.4334765571       47.3558991208        7.1654800284  TIP3      5002            0.0000000000
     32379      5138  TIP3      H1             62.4252124979       47.1112624835        6.2187638130  TIP3      5002            0.0000000000
     32380      5138  TIP3      H2             63.0443300968       46.6856750820        7.5416749157  TIP3      5002            0.0000000000
     32381      5139  TIP3      OH2            63.7448157151       50.8650930753        9.7883239585  TIP3      5003            0.0000000000
     32382      5139  TIP3      H1             63.6709777533       50.5909917467        8.8572203848  TIP3      5003            0.0000000000
     32383      5139  TIP3      H2             64.6595349775       50.6450735633       10.0109797917  TIP3      5003            0.0000000000
     32384      5140  TIP3      OH2            62.9820412504       46.1574671055       11.0375926315  TIP3      5004            0.0000000000
     32385      5140  TIP3      H1             63.2785100333       46.1291389857       10.1067835311  TIP3      5004            0.0000000000
     32386      5140  TIP3      H2             63.3726642327       46.9789782185       11.3978076052  TIP3      5004            0.0000000000
     32387      5141  TIP3      OH2            63.5552870715       50.5248100072       15.0959354629  TIP3      5005            0.0000000000
     32388      5141  TIP3      H1             63.1388903797       51.2635873094       15.5693146394  TIP3      5005            0.0000000000
     32389      5141  TIP3      H2             62.9864409701       50.4571916461       14.2972105337  TIP3      5005            0.0000000000
     32390      5142  TIP3      OH2            60.6168430886       46.8320509825       14.3841773606  TIP3      5006            0.0000000000
     32391      5142  TIP3      H1             60.8437494524       47.5684867290       14.9691150775  TIP3      5006            0.0000000000
     32392      5142  TIP3      H2             59.6876617563       46.6648949410       14.6307815842  TIP3      5006            0.0000000000
     32393      5143  TIP3      OH2            61.8907438768       52.4098153722       16.4162943149  TIP3      5007            0.0000000000
     32394      5143  TIP3      H1             61.8142912825       52.7851077880       15.5108901613  TIP3      5007            0.0000000000
     32395      5143  TIP3      H2             60.9530487645       52.1813636743       16.5991399655  TIP3      5007            0.0000000000
     32396      5144  TIP3      OH2            61.7425497998       46.4800437367        4.4091450048  TIP3      5008            0.0000000000
     32397      5144  TIP3      H1             61.1562357814       47.2533666661        4.2608974380  TIP3      5008            0.0000000000
     32398      5144  TIP3      H2             61.1150845599       45.7423970997        4.4702947536  TIP3      5008            0.0000000000
     32399      5145  TIP3      OH2            57.6410913259       49.1843689627       13.8462675059  TIP3      5009            0.0000000000
     32400      5145  TIP3      H1             57.2447277662       49.2585456921       12.9642210825  TIP3      5009            0.0000000000
     32401      5145  TIP3      H2             57.8537605873       48.2292469569       13.8615015951  TIP3      5009            0.0000000000
     32402      5146  TIP3      OH2            57.8199405016       51.6205272242       10.3119291660  TIP3      5010            0.0000000000
     32403      5146  TIP3      H1             58.7336379164       51.3288038980       10.1642450187  TIP3      5010            0.0000000000
     32404      5146  TIP3      H2             57.9378536793       52.3743813390       10.9063531554  TIP3      5010            0.0000000000
     32405      5147  TIP3      OH2            60.2345435693       54.4840036361        6.6668972398  TIP3      5011            0.0000000000
     32406      5147  TIP3      H1             60.6997055809       54.3572205683        7.5241619336  TIP3      5011            0.0000000000
     32407      5147  TIP3      H2             59.3284377738       54.2632825279        6.9450471831  TIP3      5011            0.0000000000
     32408      5148  TIP3      OH2            59.8656136096       50.5843991918       14.4300912541  TIP3      5012            0.0000000000
     32409      5148  TIP3      H1             60.0216075759       50.2882794354       15.3552824862  TIP3      5012            0.0000000000
     32410      5148  TIP3      H2             59.0155913614       50.1132257730       14.2604367868  TIP3      5012            0.0000000000
     32411      5149  TIP3      OH2            62.3541523038       38.9895218203       10.7018450413  TIP3      5013            0.0000000000
     32412      5149  TIP3      H1             61.4736471538       39.0216373681       10.2728140685  TIP3      5013            0.0000000000
     32413      5149  TIP3      H2             62.1850282395       39.5341750949       11.5010138479  TIP3      5013            0.0000000000
     32414      5150  TIP3      OH2            62.4409330886       43.6967252735       11.9250732432  TIP3      5014            0.0000000000
     32415      5150  TIP3      H1             61.6473283909       43.7191759923       12.5044700159  TIP3      5014            0.0000000000
     32416      5150  TIP3      H2             62.4906648328       44.6289124504       11.6047175718  TIP3      5014            0.0000000000
     32417      5151  TIP3      OH2            62.8879936745       43.5899815866        6.5770679961  TIP3      5015            0.0000000000
     32418      5151  TIP3      H1             62.1078420703       44.1777104752        6.5258584201  TIP3      5015            0.0000000000
     32419      5151  TIP3      H2             62.9289960627       43.2590580851        5.6447224444  TIP3      5015            0.0000000000
     32420      5152  TIP3      OH2            60.0965078463       43.6992845252       13.1836942056  TIP3      5016            0.0000000000
     32421      5152  TIP3      H1             60.1019074513       44.0982161097       14.0619553270  TIP3      5016            0.0000000000
     32422      5152  TIP3      H2             59.6674115810       42.8414561158       13.3539666156  TIP3      5016            0.0000000000
     32423      5153  TIP3      OH2            63.2863241742       42.0121272553        0.7888467746  TIP3      5017            0.0000000000
     32424      5153  TIP3      H1             63.0794638973       41.5622209047        1.6194625720  TIP3      5017            0.0000000000
     32425      5153  TIP3      H2             62.8678750675       42.8830430966        0.9163751468  TIP3      5017            0.0000000000
     32426      5154  TIP3      OH2            56.8378328040       41.0359872882        7.6425544773  TIP3      5018            0.0000000000
     32427      5154  TIP3      H1             57.5616698191       40.9767633808        8.2897845318  TIP3      5018            0.0000000000
     32428      5154  TIP3      H2             56.4627509429       41.9114662006        7.8296591356  TIP3      5018            0.0000000000
     32429      5155  TIP3      OH2            58.1125995024       41.9290595461        2.9536162409  TIP3      5019            0.0000000000
     32430      5155  TIP3      H1             58.4341764870       42.3923838645        2.1619929041  TIP3      5019            0.0000000000
     32431      5155  TIP3      H2             57.4529070630       42.5792961257        3.2889003491  TIP3      5019            0.0000000000
     32432      5156  TIP3      OH2            64.7440006175       41.4146039757        7.8382716044  TIP3      5020            0.0000000000
     32433      5156  TIP3      H1             63.7825598759       41.3589554838        8.0007112541  TIP3      5020            0.0000000000
     32434      5156  TIP3      H2             65.0960162177       41.4966208656        8.7344470776  TIP3      5020            0.0000000000
     32435      5157  TIP3      OH2            60.0514283660       43.9343708100        6.4031669047  TIP3      5021            0.0000000000
     32436      5157  TIP3      H1             59.2128955032       44.2516600560        5.9950990370  TIP3      5021            0.0000000000
     32437      5157  TIP3      H2             60.1231010707       43.0523784996        6.0156114324  TIP3      5021            0.0000000000
     32438      5158  TIP3      OH2            63.0770895650       43.2501559751        4.0236139544  TIP3      5022            0.0000000000
     32439      5158  TIP3      H1             63.9203364719       43.7268194819        3.9571185298  TIP3      5022            0.0000000000
     32440      5158  TIP3      H2             62.5812374798       43.6181293993        3.2625208891  TIP3      5022            0.0000000000
     32441      5159  TIP3      OH2            61.8914279270       44.2290177664        1.7076808258  TIP3      5023            0.0000000000
     32442      5159  TIP3      H1             61.2043128300       44.1462371273        1.0112808140  TIP3      5023            0.0000000000
     32443      5159  TIP3      H2             62.5567385756       44.8013439682        1.2872246165  TIP3      5023            0.0000000000
     32444      5160  TIP3      OH2            60.0857686354       48.9632869981       16.6540422145  TIP3      5024            0.0000000000
     32445      5160  TIP3      H1             60.7454328373       49.1452606483       17.3628456672  TIP3      5024            0.0000000000
     32446      5160  TIP3      H2             59.3605901733       48.5342083201       17.1594575596  TIP3      5024            0.0000000000
     32447      5161  TIP3      OH2            60.9371014219       39.9150782895        5.8914866575  TIP3      5025            0.0000000000
     32448      5161  TIP3      H1             60.2936222196       39.3211888997        6.3293875135  TIP3      5025            0.0000000000
     32449      5161  TIP3      H2             61.5957663489       39.2998402067        5.5507512196  TIP3      5025            0.0000000000
     32450      5162  TIP3      OH2            64.8252665749       42.4268044150       12.1371903430  TIP3      5026            0.0000000000
     32451      5162  TIP3      H1             64.0707956510       43.0511129960       12.1920693129  TIP3      5026            0.0000000000
     32452      5162  TIP3      H2             65.4426340464       42.9499022933       11.5737923424  TIP3      5026            0.0000000000
     32453      5163  TIP3      OH2            65.1054622861       48.8956975108        3.6815924811  TIP3      5027            0.0000000000
     32454      5163  TIP3      H1             64.3274408176       48.6719874036        3.1345252198  TIP3      5027            0.0000000000
     32455      5163  TIP3      H2             64.6732486900       49.1556829306        4.5298109358  TIP3      5027            0.0000000000
     32456      5164  TIP3      OH2            60.7436763368       48.3221442531        9.3097968224  TIP3      5028            0.0000000000
     32457      5164  TIP3      H1             61.3373058005       48.1084843066        8.5601099926  TIP3      5028            0.0000000000
     32458      5164  TIP3      H2             60.8497447068       47.5625091986        9.9007699770  TIP3      5028            0.0000000000
     32459      5165  TIP3      OH2            57.5935173509       46.5757093048       14.7561783946  TIP3      5029            0.0000000000
     32460      5165  TIP3      H1             57.2949627245       45.8502424236       15.3286990704  TIP3      5029            0.0000000000
     32461      5165  TIP3      H2             57.1478510254       46.3319872057       13.9178285634  TIP3      5029            0.0000000000
     32462      5166  TIP3      OH2            64.3476477860       46.2084385070       16.7358266850  TIP3      5030            0.0000000000
     32463      5166  TIP3      H1             63.8010920411       45.7035028999       16.0909588784  TIP3      5030            0.0000000000
     32464      5166  TIP3      H2             65.2020940475       45.7500132452       16.7222706074  TIP3      5030            0.0000000000
     32465      5167  TIP3      OH2            62.9192895229       51.8022827509        7.0943592453  TIP3      5031            0.0000000000
     32466      5167  TIP3      H1             63.4066089330       52.5049786271        6.6323874509  TIP3      5031            0.0000000000
     32467      5167  TIP3      H2             62.0149716054       52.1265729717        6.9794287670  TIP3      5031            0.0000000000
     32468      5168  TIP3      OH2            59.1093893193       46.7222756475        1.0604265148  TIP3      5032            0.0000000000
     32469      5168  TIP3      H1             59.3951504284       47.3410048394        1.7728962136  TIP3      5032            0.0000000000
     32470      5168  TIP3      H2             58.1586231563       46.6227427858        1.2585029661  TIP3      5032            0.0000000000
     32471      5169  TIP3      OH2            64.0774989881       49.4552815993        6.1653055682  TIP3      5033            0.0000000000
     32472      5169  TIP3      H1             63.6882487898       50.3353468523        6.3599262227  TIP3      5033            0.0000000000
     32473      5169  TIP3      H2             63.7571113569       48.9436506708        6.9226662371  TIP3      5033            0.0000000000
     32474      5170  TIP3      OH2            64.8889482119       53.6568337202       13.0078900221  TIP3      5034            0.0000000000
     32475      5170  TIP3      H1             65.4356187865       54.4529812876       12.9156696862  TIP3      5034            0.0000000000
     32476      5170  TIP3      H2             65.3867320116       53.1215957656       13.6461753955  TIP3      5034            0.0000000000
     32477      5171  TIP3      OH2            63.0804182215       54.6096966415        5.9965242129  TIP3      5035            0.0000000000
     32478      5171  TIP3      H1             62.1203881878       54.6643656601        6.1537543016  TIP3      5035            0.0000000000
     32479      5171  TIP3      H2             63.4010107664       55.4270346581        6.4535420883  TIP3      5035            0.0000000000
     32480      5172  TIP3      OH2            58.7253991793       41.1653890559       13.5917225772  TIP3      5036            0.0000000000
     32481      5172  TIP3      H1             57.9293634952       41.5148403222       13.1401862219  TIP3      5036            0.0000000000
     32482      5172  TIP3      H2             58.3699407989       40.3105129136       13.9104761329  TIP3      5036            0.0000000000
     32483      5173  TIP3      OH2            58.9291253709       53.1564763325       12.5233044746  TIP3      5037            0.0000000000
     32484      5173  TIP3      H1             59.4327862207       52.3354607380       12.6477211242  TIP3      5037            0.0000000000
     32485      5173  TIP3      H2             59.4169499130       53.7446537596       13.1188073814  TIP3      5037            0.0000000000
     32486      5174  TIP3      OH2            63.7071147229       51.2663950517        2.7885829760  TIP3      5038            0.0000000000
     32487      5174  TIP3      H1             64.6589560631       51.0877720837        2.6932921811  TIP3      5038            0.0000000000
     32488      5174  TIP3      H2             63.6702919478       52.2056996235        3.0977801269  TIP3      5038            0.0000000000
     32489      5175  TIP3      OH2            60.2243908695       48.4468605400        3.0335753658  TIP3      5039            0.0000000000
     32490      5175  TIP3      H1             59.6037944846       48.8099588165        3.6887297184  TIP3      5039            0.0000000000
     32491      5175  TIP3      H2             60.6435681428       49.2462227973        2.6724990778  TIP3      5039            0.0000000000
     32492      5176  TIP3      OH2            65.9472910961       43.0440139586        4.9290639012  TIP3      5040            0.0000000000
     32493      5176  TIP3      H1             66.6064730569       42.4261437828        5.2809258781  TIP3      5040            0.0000000000
     32494      5176  TIP3      H2             65.2003645650       42.8231175806        5.5256686455  TIP3      5040            0.0000000000
     32495      5177  TIP3      OH2            63.4366858280       53.9645839384        3.3892980673  TIP3      5041            0.0000000000
     32496      5177  TIP3      H1             63.6042305664       54.7496788138        2.8258522750  TIP3      5041            0.0000000000
     32497      5177  TIP3      H2             63.1966206474       54.3899920097        4.2404435194  TIP3      5041            0.0000000000
     32498      5178  TIP3      OH2            61.7897660990       40.6560530881        2.9671320943  TIP3      5042            0.0000000000
     32499      5178  TIP3      H1             61.9113853833       41.3849203896        3.5950831180  TIP3      5042            0.0000000000
     32500      5178  TIP3      H2             62.4423482869       40.0471141813        3.3588549199  TIP3      5042            0.0000000000
     32501      5179  TIP3      OH2            60.5407923625       51.2754469734        1.6780827594  TIP3      5043            0.0000000000
     32502      5179  TIP3      H1             61.1915444194       51.7777641392        2.1804846688  TIP3      5043            0.0000000000
     32503      5179  TIP3      H2             61.1220005537       50.6291069916        1.2097408741  TIP3      5043            0.0000000000
     32504      5180  TIP3      OH2            59.0507641949       44.0185897716        0.4863041278  TIP3      5044            0.0000000000
     32505      5180  TIP3      H1             59.3057653964       44.8993595031        0.8372197803  TIP3      5044            0.0000000000
     32506      5180  TIP3      H2             58.1803789291       44.2167631857        0.0958267995  TIP3      5044            0.0000000000
     32507      5181  TIP3      OH2            59.7884204479       38.6626193165        9.8046455949  TIP3      5045            0.0000000000
     32508      5181  TIP3      H1             59.7459221647       38.4692519875        8.8410747546  TIP3      5045            0.0000000000
     32509      5181  TIP3      H2             59.6160273989       37.7611581997       10.1645929265  TIP3      5045            0.0000000000
     32510      5182  TIP3      OH2            58.2099357230       51.7207144479        5.1730256476  TIP3      5046            0.0000000000
     32511      5182  TIP3      H1             57.9109410179       51.8823220233        6.0853634252  TIP3      5046            0.0000000000
     32512      5182  TIP3      H2             58.6234573992       52.5806228483        4.9460994793  TIP3      5046            0.0000000000
     32513      5183  TIP3      OH2            57.5226551584       54.9703312463       16.8295904481  TIP3      5047            0.0000000000
     32514      5183  TIP3      H1             58.1663953360       54.8193424488       17.5490743410  TIP3      5047            0.0000000000
     32515      5183  TIP3      H2             57.2385990320       54.0422040918       16.6528488318  TIP3      5047            0.0000000000
     32516      5184  TIP3      OH2            62.4877719576       54.1493764413       18.4742137321  TIP3      5048            0.0000000000
     32517      5184  TIP3      H1             63.3992270436       53.9127898845       18.7386784672  TIP3      5048            0.0000000000
     32518      5184  TIP3      H2             62.3831225505       53.5593125863       17.6973848350  TIP3      5048            0.0000000000
     32519      5185  TIP3      OH2            57.7622057258       48.3187808442       17.9105797235  TIP3      5049            0.0000000000
     32520      5185  TIP3      H1             57.7385634621       47.3496970741       17.8397356827  TIP3      5049            0.0000000000
     32521      5185  TIP3      H2             56.9903390250       48.5739177047       17.3590866191  TIP3      5049            0.0000000000
     32522      5186  TIP3      OH2            62.0594279837       49.3498417823        0.4029919658  TIP3      5050            0.0000000000
     32523      5186  TIP3      H1             62.6584481773       48.9240111902        1.0603529173  TIP3      5050            0.0000000000
     32524      5186  TIP3      H2             62.7128038062       49.6806523459       -0.2424937782  TIP3      5050            0.0000000000
     32525      5187  TIP3      OH2            64.5491790789       49.2156860352       17.3580655674  TIP3      5051            0.0000000000
     32526      5187  TIP3      H1             64.3043307937       49.6476625512       16.5066181171  TIP3      5051            0.0000000000
     32527      5187  TIP3      H2             64.5859334184       48.2667541445       17.1058167065  TIP3      5051            0.0000000000
     32528      5188  TIP3      OH2            58.4864362002       45.4783246669       17.5422164981  TIP3      5052            0.0000000000
     32529      5188  TIP3      H1             58.9400077335       44.7030693901       17.1981931993  TIP3      5052            0.0000000000
     32530      5188  TIP3      H2             57.5657674716       45.1969506668       17.3859720008  TIP3      5052            0.0000000000
     32531      5189  TIP3      OH2            63.2558366593       47.6176076532        2.1261811205  TIP3      5053            0.0000000000
     32532      5189  TIP3      H1             62.7146736930       47.2426332343        2.8436151894  TIP3      5053            0.0000000000
     32533      5189  TIP3      H2             63.7220851431       46.8089677103        1.8202239252  TIP3      5053            0.0000000000
     32534      5190  TIP3      OH2            62.8496831691       45.3810391487       14.5939302895  TIP3      5054            0.0000000000
     32535      5190  TIP3      H1             62.0638338885       45.9043388064       14.3114031551  TIP3      5054            0.0000000000
     32536      5190  TIP3      H2             63.5679031347       45.6628708469       13.9903377511  TIP3      5054            0.0000000000
     32537      5191  TIP3      OH2            64.6993185191       45.5268254548        1.0385197987  TIP3      5055            0.0000000000
     32538      5191  TIP3      H1             65.2046665075       44.7307422990        0.8226262639  TIP3      5055            0.0000000000
     32539      5191  TIP3      H2             65.4454680741       46.1720801083        1.0307359344  TIP3      5055            0.0000000000
     32540      5192  TIP3      OH2            63.4584652629       42.8406007697       15.5802525701  TIP3      5056            0.0000000000
     32541      5192  TIP3      H1             63.5976215785       42.1289853315       14.9268270906  TIP3      5056            0.0000000000
     32542      5192  TIP3      H2             63.2678467076       43.6065574527       14.9958247692  TIP3      5056            0.0000000000
     32543      5193  TIP3      OH2            63.3598802310       40.7407952282       13.5894119126  TIP3      5057            0.0000000000
     32544      5193  TIP3      H1             63.9899407609       41.2220357261       12.9980135013  TIP3      5057            0.0000000000
     32545      5193  TIP3      H2             62.5233057559       40.8895544382       13.1035548497  TIP3      5057            0.0000000000
     32546      5194  TIP3      OH2            65.3809173997       46.4440822575       13.4919186217  TIP3      5058            0.0000000000
     32547      5194  TIP3      H1             65.9543605311       46.5818327206       12.7215579192  TIP3      5058            0.0000000000
     32548      5194  TIP3      H2             64.7291406093       47.1489243154       13.2974764158  TIP3      5058            0.0000000000
     32549      5195  TIP3      OH2            61.9117848303       43.6226679916       17.6918892491  TIP3      5059            0.0000000000
     32550      5195  TIP3      H1             61.0681351567       43.1708628996       17.5151806469  TIP3      5059            0.0000000000
     32551      5195  TIP3      H2             62.4564395120       43.2619795070       16.9583137576  TIP3      5059            0.0000000000
     32552      5196  TIP3      OH2            64.1260571121       38.1684421957       13.3567147124  TIP3      5060            0.0000000000
     32553      5196  TIP3      H1             63.8895077487       39.1097212475       13.5626629358  TIP3      5060            0.0000000000
     32554      5196  TIP3      H2             63.2335720455       37.7971612130       13.2333620818  TIP3      5060            0.0000000000
     32555      5197  TIP3      OH2            65.2759377092       42.5244947959       17.9255197527  TIP3      5061            0.0000000000
     32556      5197  TIP3      H1             64.6946921141       42.0707320839       18.5664365090  TIP3      5061            0.0000000000
     32557      5197  TIP3      H2             64.7690329575       42.3445119629       17.1115148236  TIP3      5061            0.0000000000
     32558      5198  TIP3      OH2            59.8331313403       41.7886846058       17.6012986611  TIP3      5062            0.0000000000
     32559      5198  TIP3      H1             60.0548672907       41.0571404037       17.0053396189  TIP3      5062            0.0000000000
     32560      5198  TIP3      H2             59.7766194938       41.2913881004       18.4506149419  TIP3      5062            0.0000000000
     32561      5199  TIP3      OH2            64.6329797607       37.6622737501       16.0951280628  TIP3      5063            0.0000000000
     32562      5199  TIP3      H1             65.3287793739       36.9962934734       16.2508355426  TIP3      5063            0.0000000000
     32563      5199  TIP3      H2             64.6693433869       37.8589213332       15.1412426367  TIP3      5063            0.0000000000
     32564      5200  TIP3      OH2            64.9171703630       39.5543509860       18.2599069006  TIP3      5064            0.0000000000
     32565      5200  TIP3      H1             64.6117740454       38.8325767459       17.6971241870  TIP3      5064            0.0000000000
     32566      5200  TIP3      H2             64.0992791672       39.9864766054       18.5529637646  TIP3      5064            0.0000000000
     32567      5201  TIP3      OH2            64.1850704385       56.0476699040        1.6663337871  TIP3      5065            0.0000000000
     32568      5201  TIP3      H1             65.0759331428       55.9621478556        2.0402360813  TIP3      5065            0.0000000000
     32569      5201  TIP3      H2             64.3800687839       56.6965541274        0.9794771683  TIP3      5065            0.0000000000
     32570      5202  TIP3      OH2            58.0693199681       50.4571867974        1.1036489414  TIP3      5066            0.0000000000
     32571      5202  TIP3      H1             58.9568571157       50.7987799378        1.3635800582  TIP3      5066            0.0000000000
     32572      5202  TIP3      H2             58.1934833190       50.4747619232        0.1280977101  TIP3      5066            0.0000000000
     32573      5203  TIP3      OH2            56.8993304796       56.0777846074        6.3959229925  TIP3      5067            0.0000000000
     32574      5203  TIP3      H1             56.2160430369       55.6059171971        5.8780246188  TIP3      5067            0.0000000000
     32575      5203  TIP3      H2             57.0183090558       55.4464792513        7.1406974812  TIP3      5067            0.0000000000
     32576      5204  TIP3      OH2            57.5683746985       54.2581677751        8.2567874532  TIP3      5068            0.0000000000
     32577      5204  TIP3      H1             56.9513600386       53.9227555017        8.9376492869  TIP3      5068            0.0000000000
     32578      5204  TIP3      H2             58.2470382769       54.6419812311        8.8546886501  TIP3      5068            0.0000000000
     32579      5205  TIP3      OH2            57.6354014634       47.5253380962       10.8298487761  TIP3      5069            0.0000000000
     32580      5205  TIP3      H1             57.6840872178       47.2392606452        9.8793550402  TIP3      5069            0.0000000000
     32581      5205  TIP3      H2             58.5477703637       47.2734326060       11.1151627363  TIP3      5069            0.0000000000
     32582      5206  TIP3      OH2            57.2242001584       42.0395676199       16.6353400247  TIP3      5070            0.0000000000
     32583      5206  TIP3      H1             58.1624822961       41.8690962410       16.8672565154  TIP3      5070            0.0000000000
     32584      5206  TIP3      H2             56.8291160086       41.1816744203       16.8948318493  TIP3      5070            0.0000000000
     32585      5207  TIP3      OH2            58.5845333813       41.0303026648        9.9627039713  TIP3      5071            0.0000000000
     32586      5207  TIP3      H1             58.9264720243       40.1042748818        9.9246759357  TIP3      5071            0.0000000000
     32587      5207  TIP3      H2             59.4007188123       41.5403471230       10.1514188551  TIP3      5071            0.0000000000
     32588      5208  TIP3      OH2            56.8542731876       44.0702896150       10.7981617895  TIP3      5072            0.0000000000
     32589      5208  TIP3      H1             57.2723332757       43.7494569391        9.9733798563  TIP3      5072            0.0000000000
     32590      5208  TIP3      H2             57.3087576062       44.9203943482       10.8938102199  TIP3      5072            0.0000000000
     32591      5209  TIP3      OH2            56.8333299590       40.0304664165        4.4309034372  TIP3      5073            0.0000000000
     32592      5209  TIP3      H1             57.0729226335       40.0728785156        5.3771112301  TIP3      5073            0.0000000000
     32593      5209  TIP3      H2             57.3201790187       40.7890497517        4.0393972829  TIP3      5073            0.0000000000
     32594      5210  TIP3      OH2            57.1740034372       38.8107459120       13.1279499290  TIP3      5074            0.0000000000
     32595      5210  TIP3      H1             56.3831390121       38.3771456493       13.5048453172  TIP3      5074            0.0000000000
     32596      5210  TIP3      H2             56.8503116808       39.1619379468       12.2892672062  TIP3      5074            0.0000000000
     32597      5211  TIP3      OH2            59.1993776665       51.9232640429       17.2105761202  TIP3      5075            0.0000000000
     32598      5211  TIP3      H1             58.4933098299       52.1823215351       16.5987263055  TIP3      5075            0.0000000000
     32599      5211  TIP3      H2             58.8684107117       52.3417657126       18.0309453658  TIP3      5075            0.0000000000
     32600      5212  TIP3      OH2            62.2301838214       53.5352620068       13.9024109776  TIP3      5076            0.0000000000
     32601      5212  TIP3      H1             62.0535657247       54.3398142881       13.3564118152  TIP3      5076            0.0000000000
     32602      5212  TIP3      H2             63.1644488394       53.3728555868       13.6679585316  TIP3      5076            0.0000000000
     32603      5213  TIP3      OH2            59.5098983581       56.5073440960       13.3542823784  TIP3      5077            0.0000000000
     32604      5213  TIP3      H1             58.8051970929       57.1603902553       13.1494141801  TIP3      5077            0.0000000000
     32605      5213  TIP3      H2             59.3554209296       56.3585682790       14.2983947518  TIP3      5077            0.0000000000
     32606      5214  TIP3      OH2            61.8241633322       55.8054888737       12.5255463753  TIP3      5078            0.0000000000
     32607      5214  TIP3      H1             60.8685353939       56.0040479627       12.6855116264  TIP3      5078            0.0000000000
     32608      5214  TIP3      H2             62.0340497115       56.5552233762       11.9258873969  TIP3      5078            0.0000000000
     32609      5215  TIP3      OH2            59.0656459465       54.9793378862       10.4224575993  TIP3      5079            0.0000000000
     32610      5215  TIP3      H1             58.7173667862       54.5709983392       11.2410361848  TIP3      5079            0.0000000000
     32611      5215  TIP3      H2             59.9861263159       54.6386734993       10.3966082923  TIP3      5079            0.0000000000
     32612      5216  TIP3      OH2            61.2833810023       53.9263638433        9.0279448818  TIP3      5080            0.0000000000
     32613      5216  TIP3      H1             60.9650065526       53.0669313041        9.3581622535  TIP3      5080            0.0000000000
     32614      5216  TIP3      H2             62.1495850234       53.9728707543        9.5066898133  TIP3      5080            0.0000000000
     32615      5217  TIP3      OH2            63.3951494720       53.5741465487       10.5122781963  TIP3      5081            0.0000000000
     32616      5217  TIP3      H1             63.8959685154       52.8326929021       10.1211720574  TIP3      5081            0.0000000000
     32617      5217  TIP3      H2             63.6804690573       53.5740093379       11.4396899446  TIP3      5081            0.0000000000
     32618      5218  TIP3      OH2            59.3064677090       38.0265588904        7.1674069557  TIP3      5082            0.0000000000
     32619      5218  TIP3      H1             58.4662329975       37.7737529418        6.7252545115  TIP3      5082            0.0000000000
     32620      5218  TIP3      H2             59.7800920407       37.1627904225        7.0653181811  TIP3      5082            0.0000000000
     32621      5219  TIP3      OH2            58.0988896576       38.0731031019        2.5649136709  TIP3      5083            0.0000000000
     32622      5219  TIP3      H1             58.8379176709       38.7096251103        2.4548440573  TIP3      5083            0.0000000000
     32623      5219  TIP3      H2             57.6996111169       38.3265720359        3.4208685299  TIP3      5083            0.0000000000
     32624      5220  TIP3      OH2            64.0044453281       37.8527468469        7.2349171835  TIP3      5084            0.0000000000
     32625      5220  TIP3      H1             64.1937913601       38.7348276336        6.8706387378  TIP3      5084            0.0000000000
     32626      5220  TIP3      H2             64.2820841777       37.9479468326        8.1776577871  TIP3      5084            0.0000000000
     32627      5221  TIP3      OH2            58.4807334139       54.1387110919        3.7628484596  TIP3      5085            0.0000000000
     32628      5221  TIP3      H1             57.8239890484       54.5137570927        3.1286698858  TIP3      5085            0.0000000000
     32629      5221  TIP3      H2             58.9000736175       54.9874417714        3.9849930649  TIP3      5085            0.0000000000
     32630      5222  TIP3      OH2            59.9402510009       39.5634319558        1.1880042007  TIP3      5086            0.0000000000
     32631      5222  TIP3      H1             60.7595832645       39.0468303266        1.1054475203  TIP3      5086            0.0000000000
     32632      5222  TIP3      H2             60.3093323187       40.3550290883        1.6235453164  TIP3      5086            0.0000000000
     32633      5223  TIP3      OH2            64.5072271339       40.4688203578        4.2596960625  TIP3      5087            0.0000000000
     32634      5223  TIP3      H1             65.3417870246       40.0202752021        4.5368288053  TIP3      5087            0.0000000000
     32635      5223  TIP3      H2             64.8671198056       41.1770475844        3.7091231219  TIP3      5087            0.0000000000
     32636      5224  TIP3      OH2            59.1899105783       38.8548773498       16.6092215518  TIP3      5088            0.0000000000
     32637      5224  TIP3      H1             58.8082677238       37.9584501636       16.5721429326  TIP3      5088            0.0000000000
     32638      5224  TIP3      H2             59.8434511880       38.7640604608       17.3263318334  TIP3      5088            0.0000000000
     32639      5225  TIP3      OH2            61.2811494628       38.0029729165       18.3830941360  TIP3      5089            0.0000000000
     32640      5225  TIP3      H1             62.0033823302       38.0387891258       17.7287576930  TIP3      5089            0.0000000000
     32641      5225  TIP3      H2             61.7031512650       37.4493746032       19.0577415995  TIP3      5089            0.0000000000
     32642      5226  TIP3      OH2            60.0198499946       55.5797655939        0.9431437679  TIP3      5090            0.0000000000
     32643      5226  TIP3      H1             59.4840148046       55.5761227179        1.7595536884  TIP3      5090            0.0000000000
     32644      5226  TIP3      H2             60.6312652253       54.8409852741        1.0443455673  TIP3      5090            0.0000000000
     32645      5227  TIP3      OH2            11.6538874977       65.4093599999        9.7785155060  TIP3      5091            0.0000000000
     32646      5227  TIP3      H1             11.8166805505       65.1446345026       10.6998182825  TIP3      5091            0.0000000000
     32647      5227  TIP3      H2             10.8200154173       64.9521864297        9.5873088556  TIP3      5091            0.0000000000
     32648      5228  TIP3      OH2             3.1638753765       65.2222153943       11.3255756287  TIP3      5092            0.0000000000
     32649      5228  TIP3      H1              2.8786942203       64.4084706181       11.7668196505  TIP3      5092            0.0000000000
     32650      5228  TIP3      H2              3.3961043866       65.7485380926       12.1148716046  TIP3      5092            0.0000000000
     32651      5229  TIP3      OH2             1.5515865989       64.0965162225        5.6535283332  TIP3      5093            0.0000000000
     32652      5229  TIP3      H1              0.9702746594       64.7163075568        6.1479319651  TIP3      5093            0.0000000000
     32653      5229  TIP3      H2              0.9783450554       63.3232161507        5.4488124607  TIP3      5093            0.0000000000
     32654      5230  TIP3      OH2             1.0917835652       65.5495548712        7.9814997675  TIP3      5094            0.0000000000
     32655      5230  TIP3      H1              1.3361219060       64.6707333365        8.3419796831  TIP3      5094            0.0000000000
     32656      5230  TIP3      H2              1.9618338583       65.8989929403        7.7302877020  TIP3      5094            0.0000000000
     32657      5231  TIP3      OH2            17.6168763969       59.6402147197       10.7193080340  TIP3      5095            0.0000000000
     32658      5231  TIP3      H1             18.0815972597       60.0563388281       11.4724409565  TIP3      5095            0.0000000000
     32659      5231  TIP3      H2             18.3336038286       59.3976141157       10.1100593844  TIP3      5095            0.0000000000
     32660      5232  TIP3      OH2            12.6896596859       62.4870473912       11.1248832046  TIP3      5096            0.0000000000
     32661      5232  TIP3      H1             12.7496876225       61.5197706298       11.2652303843  TIP3      5096            0.0000000000
     32662      5232  TIP3      H2             12.9854776051       62.5567474817       10.1921925273  TIP3      5096            0.0000000000
     32663      5233  TIP3      OH2             5.3664343448       60.5201213261        8.0063430976  TIP3      5097            0.0000000000
     32664      5233  TIP3      H1              5.6892672284       61.2136997808        7.3964390875  TIP3      5097            0.0000000000
     32665      5233  TIP3      H2              5.1233981573       59.8321188317        7.3481815185  TIP3      5097            0.0000000000
     32666      5234  TIP3      OH2            13.2515003000       60.5085643306        6.7106924374  TIP3      5098            0.0000000000
     32667      5234  TIP3      H1             13.8441022995       60.2048006228        7.4340048897  TIP3      5098            0.0000000000
     32668      5234  TIP3      H2             13.7447401567       61.2803760273        6.3859524501  TIP3      5098            0.0000000000
     32669      5235  TIP3      OH2             2.0559922848       63.1556748837        8.6582866935  TIP3      5099            0.0000000000
     32670      5235  TIP3      H1              2.6835199248       63.0516886384        9.3863517252  TIP3      5099            0.0000000000
     32671      5235  TIP3      H2              2.4677694939       62.5343249355        8.0208952073  TIP3      5099            0.0000000000
     32672      5236  TIP3      OH2             6.8941594125       64.2470413020        8.5752493871  TIP3      5100            0.0000000000
     32673      5236  TIP3      H1              7.7709622106       63.8186464037        8.6234451911  TIP3      5100            0.0000000000
     32674      5236  TIP3      H2              6.4886871371       63.7057971969        7.8584108034  TIP3      5100            0.0000000000
     32675      5237  TIP3      OH2            17.9626676782       60.9755664651       13.5578398466  TIP3      5101            0.0000000000
     32676      5237  TIP3      H1             17.4605131060       61.7674171384       13.2707353953  TIP3      5101            0.0000000000
     32677      5237  TIP3      H2             18.1889040890       61.2424414854       14.4629458141  TIP3      5101            0.0000000000
     32678      5238  TIP3      OH2             4.7138302332       59.4844921219       12.1321803227  TIP3      5102            0.0000000000
     32679      5238  TIP3      H1              4.3271567080       60.0665131790       11.4437058122  TIP3      5102            0.0000000000
     32680      5238  TIP3      H2              4.0670234812       59.6518808673       12.8512815286  TIP3      5102            0.0000000000
     32681      5239  TIP3      OH2            15.2547501029       60.0605011984        8.7007226369  TIP3      5103            0.0000000000
     32682      5239  TIP3      H1             15.3523469427       59.2591608144        9.2301487184  TIP3      5103            0.0000000000
     32683      5239  TIP3      H2             15.9760931754       60.5965332039        9.0809692128  TIP3      5103            0.0000000000
     32684      5240  TIP3      OH2             4.2370644079       61.3477131965       10.2524313596  TIP3      5104            0.0000000000
     32685      5240  TIP3      H1              4.9017368646       61.9145266395       10.6956855096  TIP3      5104            0.0000000000
     32686      5240  TIP3      H2              4.7226421962       61.0785755299        9.4286969575  TIP3      5104            0.0000000000
     32687      5241  TIP3      OH2            15.2076781124       59.1094282902       12.0774851599  TIP3      5105            0.0000000000
     32688      5241  TIP3      H1             14.4133145465       59.4563277869       11.6265945804  TIP3      5105            0.0000000000
     32689      5241  TIP3      H2             15.9604367693       59.3776480385       11.5103847352  TIP3      5105            0.0000000000
     32690      5242  TIP3      OH2             7.9989834104       56.6910824625        9.8853970960  TIP3      5106            0.0000000000
     32691      5242  TIP3      H1              7.5312378532       55.9056748558        9.5779949462  TIP3      5106            0.0000000000
     32692      5242  TIP3      H2              7.2142168650       57.2724102155       10.0439960823  TIP3      5106            0.0000000000
     32693      5243  TIP3      OH2            10.7877064478       65.3907540214        4.2423058267  TIP3      5107            0.0000000000
     32694      5243  TIP3      H1             10.5088401557       66.0955558463        4.8572850509  TIP3      5107            0.0000000000
     32695      5243  TIP3      H2             11.6022785770       65.7418688375        3.8368665051  TIP3      5107            0.0000000000
     32696      5244  TIP3      OH2            10.4876197367       64.4857155606        1.0751393850  TIP3      5108            0.0000000000
     32697      5244  TIP3      H1             10.5599310207       64.7032999214        2.0149050623  TIP3      5108            0.0000000000
     32698      5244  TIP3      H2             10.8015702075       63.5698658109        1.0872200096  TIP3      5108            0.0000000000
     32699      5245  TIP3      OH2            17.1857645753       65.4433598555       11.7463988887  TIP3      5109            0.0000000000
     32700      5245  TIP3      H1             16.5893246109       66.0513008498       11.2794563256  TIP3      5109            0.0000000000
     32701      5245  TIP3      H2             17.3579458304       64.8106282592       11.0322152361  TIP3      5109            0.0000000000
     32702      5246  TIP3      OH2            14.3763714758       65.3311384526        5.4761533259  TIP3      5110            0.0000000000
     32703      5246  TIP3      H1             14.0354639242       65.7156745115        6.3221185436  TIP3      5110            0.0000000000
     32704      5246  TIP3      H2             15.2252654165       64.9364792805        5.7667048904  TIP3      5110            0.0000000000
     32705      5247  TIP3      OH2            13.6750831337       64.5147730993       14.1805585424  TIP3      5111            0.0000000000
     32706      5247  TIP3      H1             14.0148040877       65.3513995919       14.5352028211  TIP3      5111            0.0000000000
     32707      5247  TIP3      H2             12.9543447036       64.7778440233       13.5801747445  TIP3      5111            0.0000000000
     32708      5248  TIP3      OH2             6.2752844529       65.1712326111       10.9993702653  TIP3      5112            0.0000000000
     32709      5248  TIP3      H1              6.4642106340       64.9062844616       10.0658653116  TIP3      5112            0.0000000000
     32710      5248  TIP3      H2              5.9292766366       66.0720703680       10.8575488775  TIP3      5112            0.0000000000
     32711      5249  TIP3      OH2            13.3297618754       65.3406915988        3.0223048284  TIP3      5113            0.0000000000
     32712      5249  TIP3      H1             13.6323969761       65.0549889335        3.9134702798  TIP3      5113            0.0000000000
     32713      5249  TIP3      H2             14.0864167790       65.8655299630        2.7333716735  TIP3      5113            0.0000000000
     32714      5250  TIP3      OH2             4.6120043674       -0.2276946887       14.5505536715  TIP3      5114            0.0000000000
     32715      5250  TIP3      H1              4.9322607134       -0.0953939081       15.4565144483  TIP3      5114            0.0000000000
     32716      5250  TIP3      H2              3.6517319954       -0.3672101969       14.6922543600  TIP3      5114            0.0000000000
     32717      5251  TIP3      OH2            16.9967478231       56.6238905317        3.3336416818  TIP3      5115            0.0000000000
     32718      5251  TIP3      H1             16.0189674916       56.7007773103        3.4424701363  TIP3      5115            0.0000000000
     32719      5251  TIP3      H2             17.2056297569       57.4952633205        2.9469669223  TIP3      5115            0.0000000000
     32720      5252  TIP3      OH2             4.7713775235       65.5729766837        4.5042866040  TIP3      5116            0.0000000000
     32721      5252  TIP3      H1              4.6183887960       66.3210706879        3.9109007119  TIP3      5116            0.0000000000
     32722      5252  TIP3      H2              4.3424773665       64.8323493369        4.0549775319  TIP3      5116            0.0000000000
     32723      5253  TIP3      OH2            15.4161464150       62.6177542570       16.6703266891  TIP3      5117            0.0000000000
     32724      5253  TIP3      H1             14.7124334049       62.4371409124       16.0066576075  TIP3      5117            0.0000000000
     32725      5253  TIP3      H2             15.7244412959       61.7066166028       16.8693718822  TIP3      5117            0.0000000000
     32726      5254  TIP3      OH2             5.7665188492       57.9669504581       10.2636039596  TIP3      5118            0.0000000000
     32727      5254  TIP3      H1              4.8330684929       57.8324426055       10.0115445116  TIP3      5118            0.0000000000
     32728      5254  TIP3      H2              5.6515985552       58.5249676077       11.0612879998  TIP3      5118            0.0000000000
     32729      5255  TIP3      OH2            10.3922051087       57.1313336586       13.8327655981  TIP3      5119            0.0000000000
     32730      5255  TIP3      H1             10.5279636723       57.0639915453       14.7936405424  TIP3      5119            0.0000000000
     32731      5255  TIP3      H2              9.4066422715       57.1794040778       13.7693726226  TIP3      5119            0.0000000000
     32732      5256  TIP3      OH2            13.4014224504       61.7671159976       15.0481911827  TIP3      5120            0.0000000000
     32733      5256  TIP3      H1             12.6141951822       61.4641118450       15.5570421106  TIP3      5120            0.0000000000
     32734      5256  TIP3      H2             12.9942488642       62.2743496974       14.3294228009  TIP3      5120            0.0000000000
     32735      5257  TIP3      OH2            10.3767242937       60.1949271547        1.3349689288  TIP3      5121            0.0000000000
     32736      5257  TIP3      H1              9.9386657234       60.0848656939        2.1977502012  TIP3      5121            0.0000000000
     32737      5257  TIP3      H2              9.6208032509       60.2012011676        0.7173968373  TIP3      5121            0.0000000000
     32738      5258  TIP3      OH2             5.9785049068       62.5786603412       11.9006975317  TIP3      5122            0.0000000000
     32739      5258  TIP3      H1              5.2012689559       62.7050139493       12.4782605981  TIP3      5122            0.0000000000
     32740      5258  TIP3      H2              6.0623802393       63.4919067313       11.5464960984  TIP3      5122            0.0000000000
     32741      5259  TIP3      OH2             6.0094183885       62.7162550514        6.5981289528  TIP3      5123            0.0000000000
     32742      5259  TIP3      H1              5.0297875523       62.7555031462        6.5496552596  TIP3      5123            0.0000000000
     32743      5259  TIP3      H2              6.2200720837       62.4701972126        5.6686495838  TIP3      5123            0.0000000000
     32744      5260  TIP3      OH2            11.6967111187       63.4201309961        5.8809139635  TIP3      5124            0.0000000000
     32745      5260  TIP3      H1             11.2584527349       64.1539241464        5.3878124909  TIP3      5124            0.0000000000
     32746      5260  TIP3      H2             12.1683633565       62.9980805216        5.1229527530  TIP3      5124            0.0000000000
     32747      5261  TIP3      OH2            10.0700284783       64.0804657675       16.4684726764  TIP3      5125            0.0000000000
     32748      5261  TIP3      H1              9.9910465815       63.2888517130       17.0380267783  TIP3      5125            0.0000000000
     32749      5261  TIP3      H2             10.9772321951       64.3179485873       16.7085101794  TIP3      5125            0.0000000000
     32750      5262  TIP3      OH2            12.9482090028       62.8333911802        8.4635759335  TIP3      5126            0.0000000000
     32751      5262  TIP3      H1             12.4617529902       63.3295255959        7.7757606853  TIP3      5126            0.0000000000
     32752      5262  TIP3      H2             12.8882337310       61.9304412028        8.1036510470  TIP3      5126            0.0000000000
     32753      5263  TIP3      OH2             3.3187613718       62.7935214480       13.1695039181  TIP3      5127            0.0000000000
     32754      5263  TIP3      H1              3.2483624900       62.9888693176       14.1133115167  TIP3      5127            0.0000000000
     32755      5263  TIP3      H2              2.9774537360       61.8752025510       13.1513656978  TIP3      5127            0.0000000000
     32756      5264  TIP3      OH2             7.2741771620       61.0121281671        0.9722664956  TIP3      5128            0.0000000000
     32757      5264  TIP3      H1              6.8612636284       60.3664006483        1.5763145498  TIP3      5128            0.0000000000
     32758      5264  TIP3      H2              6.6698706753       61.7690672783        1.0956853726  TIP3      5128            0.0000000000
     32759      5265  TIP3      OH2             1.7285563493       59.6728368669        6.9513696722  TIP3      5129            0.0000000000
     32760      5265  TIP3      H1              1.3781381221       59.6909081529        7.8648515254  TIP3      5129            0.0000000000
     32761      5265  TIP3      H2              2.5561323021       59.1845774482        7.0730825252  TIP3      5129            0.0000000000
     32762      5266  TIP3      OH2             1.8604759055       60.6713718619        3.0269430678  TIP3      5130            0.0000000000
     32763      5266  TIP3      H1              2.4520017261       60.8743873275        2.2655399617  TIP3      5130            0.0000000000
     32764      5266  TIP3      H2              1.2604872941       61.4229108168        2.8994917306  TIP3      5130            0.0000000000
     32765      5267  TIP3      OH2            11.3660068029       64.3063612345       12.5733370914  TIP3      5131            0.0000000000
     32766      5267  TIP3      H1             11.9334730295       63.7021473036       12.0314136274  TIP3      5131            0.0000000000
     32767      5267  TIP3      H2             11.1026346260       63.6796287068       13.3002656560  TIP3      5131            0.0000000000
     32768      5268  TIP3      OH2             9.0001299689       60.2780046207        8.0083227853  TIP3      5132            0.0000000000
     32769      5268  TIP3      H1              8.2425956583       60.5523979813        8.5444865781  TIP3      5132            0.0000000000
     32770      5268  TIP3      H2              9.4112076907       59.5792217143        8.5695854532  TIP3      5132            0.0000000000
     32771      5269  TIP3      OH2             3.3399925879       62.1021925134        6.5177404366  TIP3      5133            0.0000000000
     32772      5269  TIP3      H1              2.7226101099       62.7501581194        6.1139662207  TIP3      5133            0.0000000000
     32773      5269  TIP3      H2              2.9431845714       61.2497899937        6.2679588008  TIP3      5133            0.0000000000
     32774      5270  TIP3      OH2             6.4863213892       62.0484857713        4.1148984555  TIP3      5134            0.0000000000
     32775      5270  TIP3      H1              7.4118600055       62.2472292613        4.3357028626  TIP3      5134            0.0000000000
     32776      5270  TIP3      H2              6.3633328193       62.5606590006        3.2924226355  TIP3      5134            0.0000000000
     32777      5271  TIP3      OH2            12.7785694656       59.6083694193       10.8385680348  TIP3      5135            0.0000000000
     32778      5271  TIP3      H1             12.2091765440       59.4013737340       11.6106725330  TIP3      5135            0.0000000000
     32779      5271  TIP3      H2             12.5850566227       58.8642494170       10.2394722998  TIP3      5135            0.0000000000
     32780      5272  TIP3      OH2             5.8697252314       63.2136217859        1.5096255465  TIP3      5136            0.0000000000
     32781      5272  TIP3      H1              5.1135655007       63.1450258403        0.8964373280  TIP3      5136            0.0000000000
     32782      5272  TIP3      H2              6.4978786624       63.8244802174        1.0511669876  TIP3      5136            0.0000000000
     32783      5273  TIP3      OH2             9.2873624489       62.7532212480        9.3962607418  TIP3      5137            0.0000000000
     32784      5273  TIP3      H1             10.1267747552       62.3929856035        9.0743768371  TIP3      5137            0.0000000000
     32785      5273  TIP3      H2              8.9953268159       62.0600566036       10.0063078643  TIP3      5137            0.0000000000
     32786      5274  TIP3      OH2             4.4571081762       58.7747504159        6.1938239020  TIP3      5138            0.0000000000
     32787      5274  TIP3      H1              4.0822443477       57.9784174005        6.6160036994  TIP3      5138            0.0000000000
     32788      5274  TIP3      H2              5.0350919507       58.3725931506        5.5275433661  TIP3      5138            0.0000000000
     32789      5275  TIP3      OH2             8.3164077211       61.2062720371       11.9119316592  TIP3      5139            0.0000000000
     32790      5275  TIP3      H1              7.5027477294       61.7516539787       11.9518578913  TIP3      5139            0.0000000000
     32791      5275  TIP3      H2              8.9327796601       61.7768706376       12.3965640357  TIP3      5139            0.0000000000
     32792      5276  TIP3      OH2            13.2153287606       60.4414279797        1.8544547715  TIP3      5140            0.0000000000
     32793      5276  TIP3      H1             12.3179093530       60.1560844812        1.6132214372  TIP3      5140            0.0000000000
     32794      5276  TIP3      H2             13.0132920702       61.2814716728        2.3056878019  TIP3      5140            0.0000000000
     32795      5277  TIP3      OH2            13.2732188647       62.5989017866        3.6403790478  TIP3      5141            0.0000000000
     32796      5277  TIP3      H1             14.0073542423       62.3178486516        4.2183161341  TIP3      5141            0.0000000000
     32797      5277  TIP3      H2             13.7228337950       63.1854451757        3.0051829296  TIP3      5141            0.0000000000
     32798      5278  TIP3      OH2             1.8263121133       65.2832505690       14.9513018234  TIP3      5142            0.0000000000
     32799      5278  TIP3      H1              1.7748358520       64.8407274712       15.8286866714  TIP3      5142            0.0000000000
     32800      5278  TIP3      H2              0.9539174184       65.0518824400       14.5830588811  TIP3      5142            0.0000000000
     32801      5279  TIP3      OH2             7.4157267450       64.4914345836       16.8509568562  TIP3      5143            0.0000000000
     32802      5279  TIP3      H1              7.1599880487       64.1516252530       15.9645646323  TIP3      5143            0.0000000000
     32803      5279  TIP3      H2              8.3981952292       64.4419174999       16.7457351940  TIP3      5143            0.0000000000
     32804      5280  TIP3      OH2            18.4212840684       62.8209331124        3.3738148862  TIP3      5144            0.0000000000
     32805      5280  TIP3      H1             17.7792085526       62.4668493178        2.7393201355  TIP3      5144            0.0000000000
     32806      5280  TIP3      H2             18.5369696706       63.7069174048        2.9634446492  TIP3      5144            0.0000000000
     32807      5281  TIP3      OH2             2.1505297512       64.4331116028        1.2128883811  TIP3      5145            0.0000000000
     32808      5281  TIP3      H1              2.3802339627       65.1420511416        1.8351026009  TIP3      5145            0.0000000000
     32809      5281  TIP3      H2              1.2348961025       64.6792167948        1.0309111118  TIP3      5145            0.0000000000
     32810      5282  TIP3      OH2             2.7195276386       60.2054403414       13.8415741940  TIP3      5146            0.0000000000
     32811      5282  TIP3      H1              2.1621211317       60.6928269455       14.4955761542  TIP3      5146            0.0000000000
     32812      5282  TIP3      H2              2.4339456214       59.2939892867       14.0251370772  TIP3      5146            0.0000000000
     32813      5283  TIP3      OH2            11.8631672601       59.3631497530       13.6062372129  TIP3      5147            0.0000000000
     32814      5283  TIP3      H1             12.0626329924       59.6045345689       14.5247907381  TIP3      5147            0.0000000000
     32815      5283  TIP3      H2             11.4301831824       58.4897655853       13.7279804071  TIP3      5147            0.0000000000
     32816      5284  TIP3      OH2            12.0135710619       59.7317486574        4.4094502199  TIP3      5148            0.0000000000
     32817      5284  TIP3      H1             12.7520810133       59.9193105034        3.8069677296  TIP3      5148            0.0000000000
     32818      5284  TIP3      H2             12.3888675199       60.0486893259        5.2589051223  TIP3      5148            0.0000000000
     32819      5285  TIP3      OH2             9.3849014122       61.6942561026        5.7023641619  TIP3      5149            0.0000000000
     32820      5285  TIP3      H1             10.1481828037       62.2643459842        5.9236461190  TIP3      5149            0.0000000000
     32821      5285  TIP3      H2              9.1558106684       61.2808941673        6.5654222849  TIP3      5149            0.0000000000
     32822      5286  TIP3      OH2            10.5325634134       62.3516688910       14.2284309890  TIP3      5150            0.0000000000
     32823      5286  TIP3      H1             10.2426511344       62.7622646724       15.0713607186  TIP3      5150            0.0000000000
     32824      5286  TIP3      H2             10.5124952648       61.4051944596       14.4436047056  TIP3      5150            0.0000000000
     32825      5287  TIP3      OH2            10.1361518185       58.2425957311        5.7411188385  TIP3      5151            0.0000000000
     32826      5287  TIP3      H1              9.8644716950       58.8485261760        6.4492537118  TIP3      5151            0.0000000000
     32827      5287  TIP3      H2             10.8771410960       58.7644607988        5.3552723310  TIP3      5151            0.0000000000
     32828      5288  TIP3      OH2             5.8257985838       59.6321504696        2.9572208169  TIP3      5152            0.0000000000
     32829      5288  TIP3      H1              5.5421647967       60.4452177079        3.4129154584  TIP3      5152            0.0000000000
     32830      5288  TIP3      H2              6.7642796759       59.5519334791        3.2480275060  TIP3      5152            0.0000000000
     32831      5289  TIP3      OH2            15.9138658584       59.8905897308       15.4652387689  TIP3      5153            0.0000000000
     32832      5289  TIP3      H1             15.0090234922       60.1827967634       15.2716865586  TIP3      5153            0.0000000000
     32833      5289  TIP3      H2             16.2835307246       59.8447621859       14.5718123770  TIP3      5153            0.0000000000
     32834      5290  TIP3      OH2            15.3127349801       64.3697314700        8.9325101664  TIP3      5154            0.0000000000
     32835      5290  TIP3      H1             14.4135274208       63.9821394208        8.9130071254  TIP3      5154            0.0000000000
     32836      5290  TIP3      H2             15.8025559935       63.6575541719        9.4064095402  TIP3      5154            0.0000000000
     32837      5291  TIP3      OH2             3.4406370374       61.7262942215        1.1689202505  TIP3      5155            0.0000000000
     32838      5291  TIP3      H1              3.0228177603       62.6114923656        1.1399695448  TIP3      5155            0.0000000000
     32839      5291  TIP3      H2              3.2007133443       61.3526487040        0.2980696066  TIP3      5155            0.0000000000
     32840      5292  TIP3      OH2             3.0726791029       57.3343000254        9.8904158955  TIP3      5156            0.0000000000
     32841      5292  TIP3      H1              3.0744640537       57.0271798991        8.9563823764  TIP3      5156            0.0000000000
     32842      5292  TIP3      H2              2.7208146169       56.5050344434       10.2870000340  TIP3      5156            0.0000000000
     32843      5293  TIP3      OH2             2.2410691669       64.6281646698       17.5217169328  TIP3      5157            0.0000000000
     32844      5293  TIP3      H1              2.8952864529       63.9001579482       17.5247784294  TIP3      5157            0.0000000000
     32845      5293  TIP3      H2              2.6162130525       65.1706749454       18.2389407511  TIP3      5157            0.0000000000
     32846      5294  TIP3      OH2             6.2816348042       63.5944156262       14.5748440445  TIP3      5158            0.0000000000
     32847      5294  TIP3      H1              5.5025456588       64.1671172698       14.4505227905  TIP3      5158            0.0000000000
     32848      5294  TIP3      H2              6.8874212281       63.9390084705       13.8880042552  TIP3      5158            0.0000000000
     32849      5295  TIP3      OH2             7.8382380254       64.6652431931        0.3826613444  TIP3      5159            0.0000000000
     32850      5295  TIP3      H1              8.1605293452       64.1670792082       -0.3887836290  TIP3      5159            0.0000000000
     32851      5295  TIP3      H2              8.6477180493       65.1517416049        0.6316854588  TIP3      5159            0.0000000000
     32852      5296  TIP3      OH2             7.2059038594       61.2785656359       15.6838897110  TIP3      5160            0.0000000000
     32853      5296  TIP3      H1              6.9605415000       60.5934943391       15.0212301373  TIP3      5160            0.0000000000
     32854      5296  TIP3      H2              6.9416444380       62.1030748621       15.2288219478  TIP3      5160            0.0000000000
     32855      5297  TIP3      OH2             6.9617678011       59.6086276649       13.6018052146  TIP3      5161            0.0000000000
     32856      5297  TIP3      H1              7.6041632584       60.0104076559       12.9687971966  TIP3      5161            0.0000000000
     32857      5297  TIP3      H2              6.1259398535       59.7298823321       13.1007411989  TIP3      5161            0.0000000000
     32858      5298  TIP3      OH2             8.6659600018       64.4382450942       13.4760381966  TIP3      5162            0.0000000000
     32859      5298  TIP3      H1              9.5039672330       64.3580415631       12.9998846490  TIP3      5162            0.0000000000
     32860      5298  TIP3      H2              8.4946430499       65.3952085748       13.4502230538  TIP3      5162            0.0000000000
     32861      5299  TIP3      OH2            12.2357372798       63.0276176768       18.4476996822  TIP3      5163            0.0000000000
     32862      5299  TIP3      H1             12.1429469781       62.0824223388       18.2738033907  TIP3      5163            0.0000000000
     32863      5299  TIP3      H2             13.0537210177       63.0909451543       18.9641278071  TIP3      5163            0.0000000000
     32864      5300  TIP3      OH2            14.8608913012       65.9791185999       16.2594562261  TIP3      5164            0.0000000000
     32865      5300  TIP3      H1             13.9046246386       66.1329471622       16.3798768064  TIP3      5164            0.0000000000
     32866      5300  TIP3      H2             15.0661071912       65.9768765940       17.2007372848  TIP3      5164            0.0000000000
     32867      5301  TIP3      OH2             4.5576671122       63.2489093049       17.6873053235  TIP3      5165            0.0000000000
     32868      5301  TIP3      H1              4.4124626090       62.3196045932       17.4403915485  TIP3      5165            0.0000000000
     32869      5301  TIP3      H2              5.4767506750       63.3938247296       17.4169148080  TIP3      5165            0.0000000000
     32870      5302  TIP3      OH2             7.7845765694       57.0593254884       13.5952952433  TIP3      5166            0.0000000000
     32871      5302  TIP3      H1              7.3804675397       57.9437433823       13.7568377467  TIP3      5166            0.0000000000
     32872      5302  TIP3      H2              7.0303620191       56.5776623464       13.2105163591  TIP3      5166            0.0000000000
     32873      5303  TIP3      OH2             9.2241488279       61.5047926612       17.3927696003  TIP3      5167            0.0000000000
     32874      5303  TIP3      H1              8.8714231898       61.0149235923       18.1549838407  TIP3      5167            0.0000000000
     32875      5303  TIP3      H2              8.5154141740       61.3347240936       16.7245749992  TIP3      5167            0.0000000000
     32876      5304  TIP3      OH2            11.6333231659       60.4868621109       16.6610834089  TIP3      5168            0.0000000000
     32877      5304  TIP3      H1             10.7216126920       60.7243330484       16.9346815303  TIP3      5168            0.0000000000
     32878      5304  TIP3      H2             12.0232562060       60.1256175975       17.4903609214  TIP3      5168            0.0000000000
     32879      5305  TIP3      OH2            13.1777985732       59.4445899387       18.6773337187  TIP3      5169            0.0000000000
     32880      5305  TIP3      H1             13.2365334580       58.4727929873       18.5076706020  TIP3      5169            0.0000000000
     32881      5305  TIP3      H2             12.9595205261       59.4672234797       19.6312887053  TIP3      5169            0.0000000000
     32882      5306  TIP3      OH2             3.1142880781       60.2134791711       17.8722964438  TIP3      5170            0.0000000000
     32883      5306  TIP3      H1              3.1344952625       59.4101444570       17.3111089178  TIP3      5170            0.0000000000
     32884      5306  TIP3      H2              3.0010650345       59.8318344764       18.7547697044  TIP3      5170            0.0000000000
     32885      5307  TIP3      OH2             8.0652223423       56.8984657937       16.3031936473  TIP3      5171            0.0000000000
     32886      5307  TIP3      H1              8.5526604834       56.0770178587       16.5084582495  TIP3      5171            0.0000000000
     32887      5307  TIP3      H2              7.9658952407       56.8307329750       15.3297079315  TIP3      5171            0.0000000000
     32888      5308  TIP3      OH2             7.7926546947       58.9551432847       18.3455903432  TIP3      5172            0.0000000000
     32889      5308  TIP3      H1              7.8679179423       58.0414873668       17.9864692472  TIP3      5172            0.0000000000
     32890      5308  TIP3      H2              7.1571353321       59.3425330900       17.7257877416  TIP3      5172            0.0000000000
     32891      5309  TIP3      OH2            18.4295075060       65.6251587887        6.1782797170  TIP3      5173            0.0000000000
     32892      5309  TIP3      H1             17.6712938239       65.0036523226        6.1375647478  TIP3      5173            0.0000000000
     32893      5309  TIP3      H2             18.5881852254       65.6843776486        7.1504450819  TIP3      5173            0.0000000000
     32894      5310  TIP3      OH2            18.5789764475       65.1327695019        2.0371955891  TIP3      5174            0.0000000000
     32895      5310  TIP3      H1             17.6999172503       65.5014839336        2.3032634147  TIP3      5174            0.0000000000
     32896      5310  TIP3      H2             19.1398575385       65.8280126759        2.4487201176  TIP3      5174            0.0000000000
     32897      5311  TIP3      OH2            16.2295093413       62.8259278492        0.8468746140  TIP3      5175            0.0000000000
     32898      5311  TIP3      H1             17.0172871940       63.2350170707        0.4529431806  TIP3      5175            0.0000000000
     32899      5311  TIP3      H2             16.3030720118       61.9533982344        0.4177352619  TIP3      5175            0.0000000000
     32900      5312  TIP3      OH2            16.3835461635       63.7663542919        6.4701947498  TIP3      5176            0.0000000000
     32901      5312  TIP3      H1             16.1233769237       62.8633648925        6.1989761339  TIP3      5176            0.0000000000
     32902      5312  TIP3      H2             16.0230044810       63.8408749221        7.3812776799  TIP3      5176            0.0000000000
     32903      5313  TIP3      OH2            18.3135683217       63.6813441101       17.3398761934  TIP3      5177            0.0000000000
     32904      5313  TIP3      H1             17.7982114629       63.0051974674       17.7949444951  TIP3      5177            0.0000000000
     32905      5313  TIP3      H2             19.2499962412       63.4722906764       17.5280020917  TIP3      5177            0.0000000000
     32906      5314  TIP3      OH2            16.0297935383       60.1539546843       -0.1333677273  TIP3      5178            0.0000000000
     32907      5314  TIP3      H1             16.4738586803       59.6591955258        0.5886100559  TIP3      5178            0.0000000000
     32908      5314  TIP3      H2             15.0895865588       60.0617036529        0.1090925064  TIP3      5178            0.0000000000
     32909      5315  TIP3      OH2            15.3405098091       61.5371024730        5.0983036994  TIP3      5179            0.0000000000
     32910      5315  TIP3      H1             15.5667938850       60.6119008850        5.3535828176  TIP3      5179            0.0000000000
     32911      5315  TIP3      H2             15.9254475963       61.6289508961        4.3276527472  TIP3      5179            0.0000000000
     32912      5316  TIP3      OH2            16.6396976269       62.5424015683       10.3052796012  TIP3      5180            0.0000000000
     32913      5316  TIP3      H1             17.6048622969       62.6027100195       10.5063174787  TIP3      5180            0.0000000000
     32914      5316  TIP3      H2             16.3104313717       62.1684611358       11.1339726599  TIP3      5180            0.0000000000
     32915      5317  TIP3      OH2            16.3597231184       63.0823996412       12.9867098456  TIP3      5181            0.0000000000
     32916      5317  TIP3      H1             15.4050821916       63.2637826977       13.0750794487  TIP3      5181            0.0000000000
     32917      5317  TIP3      H2             16.6517842320       63.7968459234       12.3868178481  TIP3      5181            0.0000000000
     32918      5318  TIP3      OH2             1.5290079546       61.6650085814       15.9456643709  TIP3      5182            0.0000000000
     32919      5318  TIP3      H1              2.0504952624       61.1838525408       16.6214842710  TIP3      5182            0.0000000000
     32920      5318  TIP3      H2              0.6536646081       61.6120663659       16.3885415296  TIP3      5182            0.0000000000
     32921      5319  TIP3      OH2            18.6152820320       56.8603538624       18.1891098571  TIP3      5183            0.0000000000
     32922      5319  TIP3      H1             19.1273452473       56.2604327230       17.6036880033  TIP3      5183            0.0000000000
     32923      5319  TIP3      H2             18.7319384702       57.7272518213       17.7289698442  TIP3      5183            0.0000000000
     32924      5320  TIP3      OH2            16.0713625208       58.8699789507        5.2120521018  TIP3      5184            0.0000000000
     32925      5320  TIP3      H1             16.5272875764       58.4975204518        5.9954944037  TIP3      5184            0.0000000000
     32926      5320  TIP3      H2             15.6107734466       58.0888345247        4.8636781405  TIP3      5184            0.0000000000
     32927      5321  TIP3      OH2             1.9583356711       59.8383634776        9.9248841756  TIP3      5185            0.0000000000
     32928      5321  TIP3      H1              2.3088626067       58.9259016765       10.0313788101  TIP3      5185            0.0000000000
     32929      5321  TIP3      H2              2.7497915525       60.3829266305       10.0953817375  TIP3      5185            0.0000000000
     32930      5322  TIP3      OH2             0.3145364410       63.1011194680       10.8748633603  TIP3      5186            0.0000000000
     32931      5322  TIP3      H1              1.0141984254       62.6793500604       10.3468764551  TIP3      5186            0.0000000000
     32932      5322  TIP3      H2              0.5460825696       64.0414356712       10.8867222453  TIP3      5186            0.0000000000
     32933      5323  TIP3      OH2            18.3314685535       59.0806597664       16.7304885334  TIP3      5187            0.0000000000
     32934      5323  TIP3      H1             17.5421696310       59.6110107614       16.9593829562  TIP3      5187            0.0000000000
     32935      5323  TIP3      H2             17.9775483564       58.6540166297       15.9190213994  TIP3      5187            0.0000000000
     32936      5324  TIP3      OH2            17.8665501650       59.2856654489        1.6399846627  TIP3      5188            0.0000000000
     32937      5324  TIP3      H1             18.1145786011       58.5552387608        1.0520508773  TIP3      5188            0.0000000000
     32938      5324  TIP3      H2             18.5525554010       59.9454622002        1.4225872731  TIP3      5188            0.0000000000
     32939      5325  TIP3      OH2             0.8931880673       58.6516676128        4.4734738664  TIP3      5189            0.0000000000
     32940      5325  TIP3      H1              1.1989265235       58.8755074451        5.3764782074  TIP3      5189            0.0000000000
     32941      5325  TIP3      H2              1.4130050752       59.2577497332        3.8955462671  TIP3      5189            0.0000000000
     32942      5326  TIP3      OH2             0.5574027170       57.5752539828       12.8855607639  TIP3      5190            0.0000000000
     32943      5326  TIP3      H1             -0.3636544546       57.3058638638       13.1020831730  TIP3      5190            0.0000000000
     32944      5326  TIP3      H2              0.4010889786       58.1330732090       12.1013779077  TIP3      5190            0.0000000000
     32945      5327  TIP3      OH2            17.2839512083       57.1881685109       14.9239151928  TIP3      5191            0.0000000000
     32946      5327  TIP3      H1             16.5006784220       57.5768387013       14.5131215200  TIP3      5191            0.0000000000
     32947      5327  TIP3      H2             17.3845133892       56.3502924127       14.4230468133  TIP3      5191            0.0000000000
     32948      5328  TIP3      OH2            10.1198646406       58.0098686772        9.1744269611  TIP3      5192            0.0000000000
     32949      5328  TIP3      H1              9.3552727806       57.4657979751        9.4871710048  TIP3      5192            0.0000000000
     32950      5328  TIP3      H2             10.8447354741       57.3709476309        9.1964990885  TIP3      5192            0.0000000000
     32951      5329  TIP3      OH2            16.1293991579       56.6824512949        9.2239702987  TIP3      5193            0.0000000000
     32952      5329  TIP3      H1             16.5910766953       57.2756814816        8.5757214194  TIP3      5193            0.0000000000
     32953      5329  TIP3      H2             15.2050289859       56.7206607583        8.8751996092  TIP3      5193            0.0000000000
     32954      5330  TIP3      OH2            17.6087517500       57.9459087738        7.2316900858  TIP3      5194            0.0000000000
     32955      5330  TIP3      H1             18.2720135174       57.3646335808        6.7951753797  TIP3      5194            0.0000000000
     32956      5330  TIP3      H2             18.1822073760       58.7405805981        7.3657889062  TIP3      5194            0.0000000000
     32957      5331  TIP3      OH2             2.9562532393       56.5972558712        7.1664482284  TIP3      5195            0.0000000000
     32958      5331  TIP3      H1              2.2145111653       56.5850987400        6.5337782435  TIP3      5195            0.0000000000
     32959      5331  TIP3      H2              3.3511528588       55.7025355075        7.0479749797  TIP3      5195            0.0000000000
     32960      5332  TIP3      OH2             1.3198454620       56.7027071688        2.5306040477  TIP3      5196            0.0000000000
     32961      5332  TIP3      H1              1.8477525894       57.3872056459        2.0667809053  TIP3      5196            0.0000000000
     32962      5332  TIP3      H2              1.0847563488       57.1871494351        3.3544522220  TIP3      5196            0.0000000000
     32963      5333  TIP3      OH2             7.0595555370       56.7445487256        6.8526297091  TIP3      5197            0.0000000000
     32964      5333  TIP3      H1              7.9854771998       56.8431437380        6.5877147603  TIP3      5197            0.0000000000
     32965      5333  TIP3      H2              7.0133370437       57.2422223463        7.6807022364  TIP3      5197            0.0000000000
     32966      5334  TIP3      OH2            13.6713675810       56.9037690036        8.3048634038  TIP3      5198            0.0000000000
     32967      5334  TIP3      H1             13.3894665255       57.3082574964        7.4814533747  TIP3      5198            0.0000000000
     32968      5334  TIP3      H2             13.0117436017       56.1775309769        8.4223130021  TIP3      5198            0.0000000000
     32969      5335  TIP3      OH2            14.4105047056       56.7166353407        3.7662714693  TIP3      5199            0.0000000000
     32970      5335  TIP3      H1             13.8059598735       56.8441260932        3.0151021258  TIP3      5199            0.0000000000
     32971      5335  TIP3      H2             13.9050766654       56.0427392989        4.2945953516  TIP3      5199            0.0000000000
     32972      5336  TIP3      OH2             3.2171544040       58.3661609022        1.2867523815  TIP3      5200            0.0000000000
     32973      5336  TIP3      H1              4.0145616382       58.3781757747        0.7318926634  TIP3      5200            0.0000000000
     32974      5336  TIP3      H2              3.3849864097       59.1450740246        1.8387326686  TIP3      5200            0.0000000000
     32975      5337  TIP3      OH2             8.5750150433       59.6655571871        3.6232774181  TIP3      5201            0.0000000000
     32976      5337  TIP3      H1              9.0023051222       58.9522470813        4.1192747373  TIP3      5201            0.0000000000
     32977      5337  TIP3      H2              8.8417055640       60.4126525028        4.1891765161  TIP3      5201            0.0000000000
     32978      5338  TIP3      OH2             2.5896827569       57.7200294503       16.5282611726  TIP3      5202            0.0000000000
     32979      5338  TIP3      H1              2.1455318367       56.8658599282       16.6400918268  TIP3      5202            0.0000000000
     32980      5338  TIP3      H2              3.4258335741       57.5782503419       17.0282913491  TIP3      5202            0.0000000000
     32981      5339  TIP3      OH2             4.7910593655       57.2446830613       18.3063559339  TIP3      5203            0.0000000000
     32982      5339  TIP3      H1              5.4693255315       56.5748230439       18.0919286022  TIP3      5203            0.0000000000
     32983      5339  TIP3      H2              4.4604433090       56.8696406649       19.1347620886  TIP3      5203            0.0000000000
     32984      5340  TIP3      OH2            13.6665248657       56.8259545918       18.4420465939  TIP3      5204            0.0000000000
     32985      5340  TIP3      H1             13.8187980217       56.4365927096       19.3238332434  TIP3      5204            0.0000000000
     32986      5340  TIP3      H2             14.4001069228       56.4220659756       17.9288329490  TIP3      5204            0.0000000000
     32987      5341  TIP3      OH2            30.3841892558       65.3344583889        9.7875041392  TIP3      5205            0.0000000000
     32988      5341  TIP3      H1             30.8628975566       64.9789067117       10.5567548124  TIP3      5205            0.0000000000
     32989      5341  TIP3      H2             29.6038572921       64.7703038561        9.7581397353  TIP3      5205            0.0000000000
     32990      5342  TIP3      OH2            21.7827748740       65.3125006437       11.2969858554  TIP3      5206            0.0000000000
     32991      5342  TIP3      H1             21.9840245870       64.4047584985       11.5795533617  TIP3      5206            0.0000000000
     32992      5342  TIP3      H2             22.5508544944       65.8156928346       11.5980272745  TIP3      5206            0.0000000000
     32993      5343  TIP3      OH2            20.0503545654       63.3858931443        5.4410905539  TIP3      5207            0.0000000000
     32994      5343  TIP3      H1             19.7071352793       64.2338144633        5.7679617780  TIP3      5207            0.0000000000
     32995      5343  TIP3      H2             19.3298907850       63.1821430130        4.8022550494  TIP3      5207            0.0000000000
     32996      5344  TIP3      OH2            19.8446067422       65.6513067359        8.6043751811  TIP3      5208            0.0000000000
     32997      5344  TIP3      H1             20.3156533454       64.7983674027        8.6009759070  TIP3      5208            0.0000000000
     32998      5344  TIP3      H2             20.5508816698       66.2698016705        8.3674033652  TIP3      5208            0.0000000000
     32999      5345  TIP3      OH2            36.6059978031       59.6376604431       11.1193898800  TIP3      5209            0.0000000000
     33000      5345  TIP3      H1             36.6900170932       60.1455568947       11.9564668795  TIP3      5209            0.0000000000
     33001      5345  TIP3      H2             37.5505736522       59.5738073013       10.8732475504  TIP3      5209            0.0000000000
     33002      5346  TIP3      OH2            31.0383640512       62.5743352298       11.1846985914  TIP3      5210            0.0000000000
     33003      5346  TIP3      H1             31.0517722279       61.5983182029       11.2515892371  TIP3      5210            0.0000000000
     33004      5346  TIP3      H2             30.8638238796       62.6517171522       10.2209328739  TIP3      5210            0.0000000000
     33005      5347  TIP3      OH2            24.5028089890       60.2581624030        7.8973005511  TIP3      5211            0.0000000000
     33006      5347  TIP3      H1             24.7904139164       61.0766323190        7.4335361926  TIP3      5211            0.0000000000
     33007      5347  TIP3      H2             24.0560052284       59.8265973023        7.1429159967  TIP3      5211            0.0000000000
     33008      5348  TIP3      OH2            32.1702960747       61.0568735601        6.9881703267  TIP3      5212            0.0000000000
     33009      5348  TIP3      H1             32.7815079636       60.5292395182        7.5465610500  TIP3      5212            0.0000000000
     33010      5348  TIP3      H2             32.8027703632       61.5982098683        6.4865954280  TIP3      5212            0.0000000000
     33011      5349  TIP3      OH2            21.0900607952       63.0837373834        8.8877521744  TIP3      5213            0.0000000000
     33012      5349  TIP3      H1             21.7279654078       62.6041042422        9.4579669856  TIP3      5213            0.0000000000
     33013      5349  TIP3      H2             21.3559677854       62.7052265391        8.0181532279  TIP3      5213            0.0000000000
     33014      5350  TIP3      OH2            25.8821022868       64.2333436558        8.5018778144  TIP3      5214            0.0000000000
     33015      5350  TIP3      H1             26.7067244239       63.7049876167        8.5695344282  TIP3      5214            0.0000000000
     33016      5350  TIP3      H2             25.4547479409       63.7639644385        7.7525318390  TIP3      5214            0.0000000000
     33017      5351  TIP3      OH2            36.7539831240       61.1126834642       13.3878792566  TIP3      5215            0.0000000000
     33018      5351  TIP3      H1             36.1486992222       61.8658615069       13.1706229335  TIP3      5215            0.0000000000
     33019      5351  TIP3      H2             37.3712331483       61.5133836999       14.0244303486  TIP3      5215            0.0000000000
     33020      5352  TIP3      OH2            23.6131661706       59.6532598814       12.0232062877  TIP3      5216            0.0000000000
     33021      5352  TIP3      H1             23.1990261429       60.2563495665       11.3752083836  TIP3      5216            0.0000000000
     33022      5352  TIP3      H2             23.0037600674       59.8276647757       12.7714411564  TIP3      5216            0.0000000000
     33023      5353  TIP3      OH2            34.3611573386       60.3540316750        8.6187156640  TIP3      5217            0.0000000000
     33024      5353  TIP3      H1             34.4646473882       59.5535261272        9.1519562951  TIP3      5217            0.0000000000
     33025      5353  TIP3      H2             34.8182900941       61.0255635370        9.1636727380  TIP3      5217            0.0000000000
     33026      5354  TIP3      OH2            23.0121684163       61.4920589062       10.0815786411  TIP3      5218            0.0000000000
     33027      5354  TIP3      H1             23.6627069239       61.9920351907       10.6233347352  TIP3      5218            0.0000000000
     33028      5354  TIP3      H2             23.5888314429       61.1581394052        9.3591443063  TIP3      5218            0.0000000000
     33029      5355  TIP3      OH2            33.7224507700       58.8680773063       12.0478645779  TIP3      5219            0.0000000000
     33030      5355  TIP3      H1             32.9813259374       59.4757919252       11.8281253679  TIP3      5219            0.0000000000
     33031      5355  TIP3      H2             34.4924430464       59.3063982730       11.6510838577  TIP3      5219            0.0000000000
     33032      5356  TIP3      OH2            26.9120453345       56.8388721291        9.9587701906  TIP3      5220            0.0000000000
     33033      5356  TIP3      H1             26.5492592136       55.9503923443        9.8428696979  TIP3      5220            0.0000000000
     33034      5356  TIP3      H2             26.0730444348       57.3430437130       10.0295438672  TIP3      5220            0.0000000000
     33035      5357  TIP3      OH2            29.4136764067       65.4800734859        4.0473050217  TIP3      5221            0.0000000000
     33036      5357  TIP3      H1             29.0750440437       66.1427731936        4.6772529673  TIP3      5221            0.0000000000
     33037      5357  TIP3      H2             30.0272582079       66.0031573305        3.4997549488  TIP3      5221            0.0000000000
     33038      5358  TIP3      OH2            29.3394965931       64.5516828922        1.0733751561  TIP3      5222            0.0000000000
     33039      5358  TIP3      H1             29.8350521116       65.0523959648        1.7461694444  TIP3      5222            0.0000000000
     33040      5358  TIP3      H2             29.7830221583       63.7038755784        1.1053334722  TIP3      5222            0.0000000000
     33041      5359  TIP3      OH2            36.3329352236       65.1352986755       12.3197441639  TIP3      5223            0.0000000000
     33042      5359  TIP3      H1             36.4646394242       65.9939433801       11.8795631457  TIP3      5223            0.0000000000
     33043      5359  TIP3      H2             36.9841605536       64.6029481971       11.8253201491  TIP3      5223            0.0000000000
     33044      5360  TIP3      OH2            32.4428709519       65.4369947727        5.7349584513  TIP3      5224            0.0000000000
     33045      5360  TIP3      H1             32.2034043561       65.6946732212        6.6554514774  TIP3      5224            0.0000000000
     33046      5360  TIP3      H2             32.0737348732       64.5298651791        5.6905622264  TIP3      5224            0.0000000000
     33047      5361  TIP3      OH2            33.1253993476       64.3237630649       14.2576331819  TIP3      5225            0.0000000000
     33048      5361  TIP3      H1             33.2155416247       65.0524770505       14.8965587815  TIP3      5225            0.0000000000
     33049      5361  TIP3      H2             32.3097682229       64.5326255862       13.7549409000  TIP3      5225            0.0000000000
     33050      5362  TIP3      OH2            24.9347590535       64.9414591127       10.9245072000  TIP3      5226            0.0000000000
     33051      5362  TIP3      H1             25.2226835855       64.6253134698       10.0294230586  TIP3      5226            0.0000000000
     33052      5362  TIP3      H2             24.9387341545       65.9064937860       10.7232946323  TIP3      5226            0.0000000000
     33053      5363  TIP3      OH2            31.8218722537       65.4171588948        2.7537096601  TIP3      5227            0.0000000000
     33054      5363  TIP3      H1             31.9114577920       64.5759047511        3.2415011971  TIP3      5227            0.0000000000
     33055      5363  TIP3      H2             32.5882067155       65.9358594443        3.0291336797  TIP3      5227            0.0000000000
     33056      5364  TIP3      OH2            23.2880546203       65.6120761835       14.6002934589  TIP3      5228            0.0000000000
     33057      5364  TIP3      H1             23.1246932307       65.7036524514       15.5589013886  TIP3      5228            0.0000000000
     33058      5364  TIP3      H2             22.3989657508       65.6219236789       14.2247886237  TIP3      5228            0.0000000000
     33059      5365  TIP3      OH2            35.9959192661       56.6988717280        3.3472474084  TIP3      5229            0.0000000000
     33060      5365  TIP3      H1             35.0090480773       56.6822074135        3.3370809270  TIP3      5229            0.0000000000
     33061      5365  TIP3      H2             36.1451590797       57.5051651732        2.8186838420  TIP3      5229            0.0000000000
     33062      5366  TIP3      OH2            23.5280041253       65.8339790129        4.6259757060  TIP3      5230            0.0000000000
     33063      5366  TIP3      H1             23.6331549125       66.4093904522        3.8675801800  TIP3      5230            0.0000000000
     33064      5366  TIP3      H2             23.2664786466       65.0075846970        4.2037010831  TIP3      5230            0.0000000000
     33065      5367  TIP3      OH2            35.0383646274       62.6700020699       16.4814490920  TIP3      5231            0.0000000000
     33066      5367  TIP3      H1             34.3697198366       62.7274589532       15.7829088932  TIP3      5231            0.0000000000
     33067      5367  TIP3      H2             34.7031313495       61.9389245582       17.0223785658  TIP3      5231            0.0000000000
     33068      5368  TIP3      OH2            24.5144460574       57.9421504441       10.2912181456  TIP3      5232            0.0000000000
     33069      5368  TIP3      H1             23.5295456826       57.8843911134       10.2769949560  TIP3      5232            0.0000000000
     33070      5368  TIP3      H2             24.5839163679       58.6605447500       10.9601838278  TIP3      5232            0.0000000000
     33071      5369  TIP3      OH2            29.6105028816       57.2237215139       13.6866543358  TIP3      5233            0.0000000000
     33072      5369  TIP3      H1             29.9277763446       56.9887593381       14.5885323432  TIP3      5233            0.0000000000
     33073      5369  TIP3      H2             28.6462255991       57.3579124448       13.8210950352  TIP3      5233            0.0000000000
     33074      5370  TIP3      OH2            32.3085361866       61.7498782903       15.0440806302  TIP3      5234            0.0000000000
     33075      5370  TIP3      H1             31.7300798029       61.5583399231       15.8210766345  TIP3      5234            0.0000000000
     33076      5370  TIP3      H2             32.3922679906       62.7206756268       15.0151939045  TIP3      5234            0.0000000000
     33077      5371  TIP3      OH2            29.0297075573       60.3050375079        1.3029498981  TIP3      5235            0.0000000000
     33078      5371  TIP3      H1             28.4528441231       60.1575262273        2.0824445747  TIP3      5235            0.0000000000
     33079      5371  TIP3      H2             28.3871541707       60.1945435864        0.5858937684  TIP3      5235            0.0000000000
     33080      5372  TIP3      OH2            24.9572046096       62.3851163559       11.7001449231  TIP3      5236            0.0000000000
     33081      5372  TIP3      H1             24.3391133621       62.5232500479       12.4502672314  TIP3      5236            0.0000000000
     33082      5372  TIP3      H2             25.0658981005       63.3171211913       11.3992302317  TIP3      5236            0.0000000000
     33083      5373  TIP3      OH2            24.7024290097       62.6954538255        6.6410011963  TIP3      5237            0.0000000000
     33084      5373  TIP3      H1             23.7486180144       62.5018950173        6.5289260142  TIP3      5237            0.0000000000
     33085      5373  TIP3      H2             25.0473140261       62.5538145568        5.7315083615  TIP3      5237            0.0000000000
     33086      5374  TIP3      OH2            30.4986599613       63.5603681424        5.6225016374  TIP3      5238            0.0000000000
     33087      5374  TIP3      H1             29.8816216711       64.1227374842        5.0862000147  TIP3      5238            0.0000000000
     33088      5374  TIP3      H2             30.9272399919       63.0321124418        4.9157766839  TIP3      5238            0.0000000000
     33089      5375  TIP3      OH2            29.2311799459       63.5955641527       17.1728242112  TIP3      5239            0.0000000000
     33090      5375  TIP3      H1             28.7682072574       62.7475522730       17.3605693161  TIP3      5239            0.0000000000
     33091      5375  TIP3      H2             30.0428032436       63.4984220545       17.7188654387  TIP3      5239            0.0000000000
     33092      5376  TIP3      OH2            30.5244778618       62.5242887401        8.5212557897  TIP3      5240            0.0000000000
     33093      5376  TIP3      H1             30.6203191773       63.1637273551        7.7946476518  TIP3      5240            0.0000000000
     33094      5376  TIP3      H2             31.1141427675       61.8211929121        8.1688909078  TIP3      5240            0.0000000000
     33095      5377  TIP3      OH2            22.2904601445       62.5367172864       12.9931128320  TIP3      5241            0.0000000000
     33096      5377  TIP3      H1             22.4964470172       63.2084436805       13.6619945363  TIP3      5241            0.0000000000
     33097      5377  TIP3      H2             21.9132983314       61.8076122799       13.5268825824  TIP3      5241            0.0000000000
     33098      5378  TIP3      OH2            25.8832063721       60.8009349387        0.7329512202  TIP3      5242            0.0000000000
     33099      5378  TIP3      H1             25.2754723944       61.1709085414        1.4061810001  TIP3      5242            0.0000000000
     33100      5378  TIP3      H2             25.9146855172       61.5369617699        0.1101802389  TIP3      5242            0.0000000000
     33101      5379  TIP3      OH2            19.3466719239       59.9446468967        7.8145123827  TIP3      5243            0.0000000000
     33102      5379  TIP3      H1             19.7816441422       59.9128980124        8.6927273258  TIP3      5243            0.0000000000
     33103      5379  TIP3      H2             19.5017292732       60.8560017388        7.5247480280  TIP3      5243            0.0000000000
     33104      5380  TIP3      OH2            20.3835771949       61.0102143999        2.9459355642  TIP3      5244            0.0000000000
     33105      5380  TIP3      H1             20.9799510315       61.1845812447        2.1891037469  TIP3      5244            0.0000000000
     33106      5380  TIP3      H2             19.8185826882       61.8114552749        2.9807443448  TIP3      5244            0.0000000000
     33107      5381  TIP3      OH2            30.4629306294       64.4112565536       13.0252838654  TIP3      5245            0.0000000000
     33108      5381  TIP3      H1             30.8446983691       63.8628442702       12.3027565029  TIP3      5245            0.0000000000
     33109      5381  TIP3      H2             29.9991314774       63.7148353009       13.5451627910  TIP3      5245            0.0000000000
     33110      5382  TIP3      OH2            27.5517817542       60.3265768349        7.5300855460  TIP3      5246            0.0000000000
     33111      5382  TIP3      H1             26.9386670190       60.6621690434        8.1919047134  TIP3      5246            0.0000000000
     33112      5382  TIP3      H2             28.1321887973       59.7360049498        8.0592902040  TIP3      5246            0.0000000000
     33113      5383  TIP3      OH2            22.0801780869       61.8753177726        6.4749139922  TIP3      5247            0.0000000000
     33114      5383  TIP3      H1             21.5006467234       62.4811481670        5.9452856618  TIP3      5247            0.0000000000
     33115      5383  TIP3      H2             21.8826692403       61.0224859092        6.0759752560  TIP3      5247            0.0000000000
     33116      5384  TIP3      OH2            25.5577453937       61.8368125834        4.2046291404  TIP3      5248            0.0000000000
     33117      5384  TIP3      H1             26.5194042686       61.9668413925        4.3560587018  TIP3      5248            0.0000000000
     33118      5384  TIP3      H2             25.3393605895       62.3566192178        3.4032423945  TIP3      5248            0.0000000000
     33119      5385  TIP3      OH2            31.5987281887       59.8135146563       10.6336640239  TIP3      5249            0.0000000000
     33120      5385  TIP3      H1             31.1915704669       59.4713146647       11.4604036373  TIP3      5249            0.0000000000
     33121      5385  TIP3      H2             31.7363173134       59.0079483993       10.1197942129  TIP3      5249            0.0000000000
     33122      5386  TIP3      OH2            24.5395517192       62.8457429434        1.7555033522  TIP3      5250            0.0000000000
     33123      5386  TIP3      H1             23.7817001067       62.8827651916        1.1420216753  TIP3      5250            0.0000000000
     33124      5386  TIP3      H2             25.1940982899       63.4278653781        1.3081752765  TIP3      5250            0.0000000000
     33125      5387  TIP3      OH2            27.9811929819       62.6562988928        9.1048694186  TIP3      5251            0.0000000000
     33126      5387  TIP3      H1             28.9132253426       62.5108863441        8.8124824667  TIP3      5251            0.0000000000
     33127      5387  TIP3      H2             27.8954828261       62.0497651050        9.8637894345  TIP3      5251            0.0000000000
     33128      5388  TIP3      OH2            23.3766842936       58.7440289895        5.9699283067  TIP3      5252            0.0000000000
     33129      5388  TIP3      H1             22.4754035101       58.3848402300        5.8683167269  TIP3      5252            0.0000000000
     33130      5388  TIP3      H2             23.5535840988       59.0816201313        5.0618341776  TIP3      5252            0.0000000000
     33131      5389  TIP3      OH2            27.4491168554       61.3652049622       11.8092613797  TIP3      5253            0.0000000000
     33132      5389  TIP3      H1             26.5127576653       61.6524615019       11.8048621914  TIP3      5253            0.0000000000
     33133      5389  TIP3      H2             27.7959051710       61.9800074627       12.4618941721  TIP3      5253            0.0000000000
     33134      5390  TIP3      OH2            31.7035512214       60.5350515654        2.1096047402  TIP3      5254            0.0000000000
     33135      5390  TIP3      H1             30.7783437474       60.4044045602        1.8066712840  TIP3      5254            0.0000000000
     33136      5390  TIP3      H2             31.7420940459       61.4940284735        2.1449053559  TIP3      5254            0.0000000000
     33137      5391  TIP3      OH2            32.3514155460       62.8689965359        3.4866016839  TIP3      5255            0.0000000000
     33138      5391  TIP3      H1             32.9015933443       62.3434505959        4.1014492117  TIP3      5255            0.0000000000
     33139      5391  TIP3      H2             32.8468300867       62.7687286954        2.6450731094  TIP3      5255            0.0000000000
     33140      5392  TIP3      OH2            19.4189303818       65.1114524159       14.5562069633  TIP3      5256            0.0000000000
     33141      5392  TIP3      H1             20.0191927022       64.7076508069       15.1904349058  TIP3      5256            0.0000000000
     33142      5392  TIP3      H2             19.8731124995       65.0387647866       13.7007584759  TIP3      5256            0.0000000000
     33143      5393  TIP3      OH2            26.5008373367       64.4599641640       16.8567880903  TIP3      5257            0.0000000000
     33144      5393  TIP3      H1             26.1758902761       64.2041774641       15.9828752799  TIP3      5257            0.0000000000
     33145      5393  TIP3      H2             27.4323713219       64.1721136925       16.8192049415  TIP3      5257            0.0000000000
     33146      5394  TIP3      OH2            36.9797370702       62.6155001978        3.3537974006  TIP3      5258            0.0000000000
     33147      5394  TIP3      H1             36.6901810194       62.1916779494        2.5197812113  TIP3      5258            0.0000000000
     33148      5394  TIP3      H2             37.1310233807       63.5317687396        3.0085048686  TIP3      5258            0.0000000000
     33149      5395  TIP3      OH2            21.5024744144       64.6412433431        0.9889093385  TIP3      5259            0.0000000000
     33150      5395  TIP3      H1             21.0087688633       65.0211872730        1.7340507242  TIP3      5259            0.0000000000
     33151      5395  TIP3      H2             21.3110606389       65.3576751398        0.3519079387  TIP3      5259            0.0000000000
     33152      5396  TIP3      OH2            21.8414981177       59.9219816509       14.1052508040  TIP3      5260            0.0000000000
     33153      5396  TIP3      H1             21.0252695189       59.9229053345       14.6266178795  TIP3      5260            0.0000000000
     33154      5396  TIP3      H2             22.2509083154       59.1004411977       14.4236353483  TIP3      5260            0.0000000000
     33155      5397  TIP3      OH2            30.9795005775       59.5882460095       13.3146269742  TIP3      5261            0.0000000000
     33156      5397  TIP3      H1             31.1701882605       60.0640434165       14.1372334003  TIP3      5261            0.0000000000
     33157      5397  TIP3      H2             30.5883969311       58.7477434786       13.6287583021  TIP3      5261            0.0000000000
     33158      5398  TIP3      OH2            31.1713291313       59.7875747479        4.7124302393  TIP3      5262            0.0000000000
     33159      5398  TIP3      H1             31.6274291490       60.0718287828        3.8905517044  TIP3      5262            0.0000000000
     33160      5398  TIP3      H2             31.5201311130       60.4180493363        5.3711387347  TIP3      5262            0.0000000000
     33161      5399  TIP3      OH2            28.1289509403       61.6349168887        5.2553406300  TIP3      5263            0.0000000000
     33162      5399  TIP3      H1             28.5735052391       62.4291369301        5.5685217416  TIP3      5263            0.0000000000
     33163      5399  TIP3      H2             27.8539645257       61.1898237160        6.0926818763  TIP3      5263            0.0000000000
     33164      5400  TIP3      OH2            29.3181361276       62.5337896857       14.6046663392  TIP3      5264            0.0000000000
     33165      5400  TIP3      H1             29.4809394049       62.8171475521       15.5260882783  TIP3      5264            0.0000000000
     33166      5400  TIP3      H2             29.8442091096       61.7246035402       14.4947498861  TIP3      5264            0.0000000000
     33167      5401  TIP3      OH2            28.9718194025       58.3161341274        5.4573417459  TIP3      5265            0.0000000000
     33168      5401  TIP3      H1             28.6314681018       58.7421869999        6.2646334906  TIP3      5265            0.0000000000
     33169      5401  TIP3      H2             29.7935814004       58.8499319097        5.3000327489  TIP3      5265            0.0000000000
     33170      5402  TIP3      OH2            23.9764536083       59.3519602897        3.3726087495  TIP3      5266            0.0000000000
     33171      5402  TIP3      H1             24.3521103395       60.2539312960        3.4087781777  TIP3      5266            0.0000000000
     33172      5402  TIP3      H2             24.7856790481       58.8136749901        3.3514225090  TIP3      5266            0.0000000000
     33173      5403  TIP3      OH2            34.7253081086       59.9990363804       15.1561221092  TIP3      5267            0.0000000000
     33174      5403  TIP3      H1             33.8738910137       60.4613677063       15.0652696677  TIP3      5267            0.0000000000
     33175      5403  TIP3      H2             35.2361813224       60.3630145793       14.4079411531  TIP3      5267            0.0000000000
     33176      5404  TIP3      OH2            33.3102491182       63.6803594031        8.7411881418  TIP3      5268            0.0000000000
     33177      5404  TIP3      H1             32.6839124727       63.3922814193        9.4118725636  TIP3      5268            0.0000000000
     33178      5404  TIP3      H2             34.1428303701       63.4160473959        9.2102428577  TIP3      5268            0.0000000000
     33179      5405  TIP3      OH2            21.6489439965       62.0397038045        0.6651534200  TIP3      5269            0.0000000000
     33180      5405  TIP3      H1             21.7129238448       62.9839619528        0.9338160069  TIP3      5269            0.0000000000
     33181      5405  TIP3      H2             20.7630080201       62.0274342566        0.2773133422  TIP3      5269            0.0000000000
     33182      5406  TIP3      OH2            21.9865322432       57.4223442476        9.8370922654  TIP3      5270            0.0000000000
     33183      5406  TIP3      H1             21.6506456945       57.2920067479        8.9224896761  TIP3      5270            0.0000000000
     33184      5406  TIP3      H2             21.7156925498       56.5448855528       10.2032110664  TIP3      5270            0.0000000000
     33185      5407  TIP3      OH2            21.0320597241       64.3961179354       18.0032376015  TIP3      5271            0.0000000000
     33186      5407  TIP3      H1             21.9205721069       63.9607128201       17.9124701472  TIP3      5271            0.0000000000
     33187      5407  TIP3      H2             21.0420435518       64.6396436528       18.9475905364  TIP3      5271            0.0000000000
     33188      5408  TIP3      OH2            24.9496639210       63.4540731129       14.2235046650  TIP3      5272            0.0000000000
     33189      5408  TIP3      H1             24.4109618541       64.2104642590       14.5307734669  TIP3      5272            0.0000000000
     33190      5408  TIP3      H2             25.6529249088       63.8921394032       13.6796307529  TIP3      5272            0.0000000000
     33191      5409  TIP3      OH2            26.5601807725       64.1980324086        0.4985241107  TIP3      5273            0.0000000000
     33192      5409  TIP3      H1             26.6864182325       64.1148884111       -0.4604979802  TIP3      5273            0.0000000000
     33193      5409  TIP3      H2             27.4814466646       64.3821737538        0.8005676861  TIP3      5273            0.0000000000
     33194      5410  TIP3      OH2            25.8139067140       61.3370150673       15.6376060998  TIP3      5274            0.0000000000
     33195      5410  TIP3      H1             25.7838007301       60.6644882176       14.9247460951  TIP3      5274            0.0000000000
     33196      5410  TIP3      H2             25.4286321311       62.1095104546       15.1822395531  TIP3      5274            0.0000000000
     33197      5411  TIP3      OH2            26.1485685009       59.6112769254       13.4011159055  TIP3      5275            0.0000000000
     33198      5411  TIP3      H1             26.7874586290       59.9995995646       12.7631651251  TIP3      5275            0.0000000000
     33199      5411  TIP3      H2             25.3143823042       59.7555971436       12.9143314380  TIP3      5275            0.0000000000
     33200      5412  TIP3      OH2            27.2602995297       64.4378997903       13.1305687996  TIP3      5276            0.0000000000
     33201      5412  TIP3      H1             28.2248685897       64.4070979013       13.1360797380  TIP3      5276            0.0000000000
     33202      5412  TIP3      H2             27.0750943921       65.3855339375       13.2961688037  TIP3      5276            0.0000000000
     33203      5413  TIP3      OH2            31.5647319034       62.7668146346       18.6749235075  TIP3      5277            0.0000000000
     33204      5413  TIP3      H1             31.2534164682       61.8452170974       18.7418627207  TIP3      5277            0.0000000000
     33205      5413  TIP3      H2             32.4683467213       62.6667160357       19.0113008125  TIP3      5277            0.0000000000
     33206      5414  TIP3      OH2            33.9859024564       -0.2978118148       16.5903641488  TIP3      5278            0.0000000000
     33207      5414  TIP3      H1             34.2188019638        0.5282222619       16.1254140135  TIP3      5278            0.0000000000
     33208      5414  TIP3      H2             34.8399826860       -0.7663445277       16.5485552493  TIP3      5278            0.0000000000
     33209      5415  TIP3      OH2            23.2456546998       63.0047769521       17.3582429057  TIP3      5279            0.0000000000
     33210      5415  TIP3      H1             23.0828171116       62.0813837599       17.0891260826  TIP3      5279            0.0000000000
     33211      5415  TIP3      H2             24.2058305216       63.1125458754       17.2830818221  TIP3      5279            0.0000000000
     33212      5416  TIP3      OH2            26.9447982476       57.0410587769       13.5452190773  TIP3      5280            0.0000000000
     33213      5416  TIP3      H1             26.5850895144       57.9561092594       13.5594982153  TIP3      5280            0.0000000000
     33214      5416  TIP3      H2             26.2153039458       56.5696010877       13.0955932270  TIP3      5280            0.0000000000
     33215      5417  TIP3      OH2            27.9136703742       61.3039008019       17.4784265064  TIP3      5281            0.0000000000
     33216      5417  TIP3      H1             27.3336751672       61.2047967855       18.2654941612  TIP3      5281            0.0000000000
     33217      5417  TIP3      H2             27.2488788242       61.2294954045       16.7560023146  TIP3      5281            0.0000000000
     33218      5418  TIP3      OH2            30.4698610388       60.7074656576       16.7223015693  TIP3      5282            0.0000000000
     33219      5418  TIP3      H1             29.5277648072       60.7814589420       16.9699662089  TIP3      5282            0.0000000000
     33220      5418  TIP3      H2             30.7872964525       60.0305585294       17.3586491243  TIP3      5282            0.0000000000
     33221      5419  TIP3      OH2            31.6812575368       59.0026729330       18.5027488226  TIP3      5283            0.0000000000
     33222      5419  TIP3      H1             32.0236756990       58.0764025400       18.5652596173  TIP3      5283            0.0000000000
     33223      5419  TIP3      H2             31.8107320733       59.3649841979       19.4104177942  TIP3      5283            0.0000000000
     33224      5420  TIP3      OH2            22.1428786122       60.3841604743       17.7930760798  TIP3      5284            0.0000000000
     33225      5420  TIP3      H1             22.1094392561       59.5617923909       17.2530102926  TIP3      5284            0.0000000000
     33226      5420  TIP3      H2             22.3497190221       60.0284031581       18.6714161471  TIP3      5284            0.0000000000
     33227      5421  TIP3      OH2            26.6140274196       56.7001935448       16.2413667255  TIP3      5285            0.0000000000
     33228      5421  TIP3      H1             27.3294301082       56.0610768064       16.3885067756  TIP3      5285            0.0000000000
     33229      5421  TIP3      H2             26.6507099329       56.7798236579       15.2643956258  TIP3      5285            0.0000000000
     33230      5422  TIP3      OH2            26.7528471510       58.4609681685       19.1117589411  TIP3      5286            0.0000000000
     33231      5422  TIP3      H1             27.1398395309       57.9829583069       18.3599627941  TIP3      5286            0.0000000000
     33232      5422  TIP3      H2             26.5399569697       59.3180814308       18.7117754503  TIP3      5286            0.0000000000
     33233      5423  TIP3      OH2            37.4469935721       65.0496699841        6.5578018713  TIP3      5287            0.0000000000
     33234      5423  TIP3      H1             36.7719386345       64.3813938765        6.8016672595  TIP3      5287            0.0000000000
     33235      5423  TIP3      H2             37.7877158338       65.2948754300        7.4504567382  TIP3      5287            0.0000000000
     33236      5424  TIP3      OH2            37.5818997081       64.8518986648        1.9699773432  TIP3      5288            0.0000000000
     33237      5424  TIP3      H1             36.9789044370       65.2362019016        1.3173765758  TIP3      5288            0.0000000000
     33238      5424  TIP3      H2             37.9884471023       65.6413485554        2.4006975228  TIP3      5288            0.0000000000
     33239      5425  TIP3      OH2            34.9801657076       62.5030708059        1.1666019769  TIP3      5289            0.0000000000
     33240      5425  TIP3      H1             35.6853481000       62.9161746231        0.6376879101  TIP3      5289            0.0000000000
     33241      5425  TIP3      H2             35.0401746873       61.5932687472        0.7977357916  TIP3      5289            0.0000000000
     33242      5426  TIP3      OH2            35.2311291266       63.5157312527        6.7524785248  TIP3      5290            0.0000000000
     33243      5426  TIP3      H1             35.0879222321       62.6428418485        6.3429962362  TIP3      5290            0.0000000000
     33244      5426  TIP3      H2             34.5476103271       63.4874799957        7.4571753829  TIP3      5290            0.0000000000
     33245      5427  TIP3      OH2            37.3716189212       63.7496653434       17.5089361455  TIP3      5291            0.0000000000
     33246      5427  TIP3      H1             36.6431617961       63.1738779299       17.1904150257  TIP3      5291            0.0000000000
     33247      5427  TIP3      H2             38.1492964693       63.2484882473       17.2124804275  TIP3      5291            0.0000000000
     33248      5428  TIP3      OH2            34.8689942055       60.0671439785       -0.0482490002  TIP3      5292            0.0000000000
     33249      5428  TIP3      H1             35.4477974044       59.6595968673        0.6345100371  TIP3      5292            0.0000000000
     33250      5428  TIP3      H2             33.9775271656       59.8813857821        0.2844846918  TIP3      5292            0.0000000000
     33251      5429  TIP3      OH2            34.1250263823       61.5814763415        5.1673110452  TIP3      5293            0.0000000000
     33252      5429  TIP3      H1             34.2449866276       60.6428241138        5.4529679251  TIP3      5293            0.0000000000
     33253      5429  TIP3      H2             34.8268153050       61.6356427678        4.4883650851  TIP3      5293            0.0000000000
     33254      5430  TIP3      OH2            35.4009088704       62.6372283460       10.0534092015  TIP3      5294            0.0000000000
     33255      5430  TIP3      H1             36.3548208722       62.4414336223       10.1494788578  TIP3      5294            0.0000000000
     33256      5430  TIP3      H2             35.1770840903       62.8061284617       10.9924829278  TIP3      5294            0.0000000000
     33257      5431  TIP3      OH2            34.8897446909       62.9243930654       12.7150045357  TIP3      5295            0.0000000000
     33258      5431  TIP3      H1             34.1120573666       63.1577563925       13.2597443281  TIP3      5295            0.0000000000
     33259      5431  TIP3      H2             35.1936300862       63.8394797075       12.4990687205  TIP3      5295            0.0000000000
     33260      5432  TIP3      OH2            19.8702230086       61.1731484007       16.4586775090  TIP3      5296            0.0000000000
     33261      5432  TIP3      H1             20.7411193179       60.9316015110       16.8382406785  TIP3      5296            0.0000000000
     33262      5432  TIP3      H2             19.3671296409       60.3595974390       16.6611684404  TIP3      5296            0.0000000000
     33263      5433  TIP3      OH2            37.6336528574       57.5661950532       18.2692576202  TIP3      5297            0.0000000000
     33264      5433  TIP3      H1             38.0399505199       56.8425303525       17.7812097109  TIP3      5297            0.0000000000
     33265      5433  TIP3      H2             37.7641002458       58.2981995057       17.6271255411  TIP3      5297            0.0000000000
     33266      5434  TIP3      OH2            34.7631114899       58.9755476838        5.4482141069  TIP3      5298            0.0000000000
     33267      5434  TIP3      H1             35.4810641760       58.5606644775        5.9603399712  TIP3      5298            0.0000000000
     33268      5434  TIP3      H2             34.4904255942       58.2602784916        4.8418792399  TIP3      5298            0.0000000000
     33269      5435  TIP3      OH2            20.8674334227       59.8019201746       10.2062527151  TIP3      5299            0.0000000000
     33270      5435  TIP3      H1             21.3190556760       58.9252835053       10.1316135064  TIP3      5299            0.0000000000
     33271      5435  TIP3      H2             21.5955213981       60.4467420130       10.1280483913  TIP3      5299            0.0000000000
     33272      5436  TIP3      OH2            19.1269198937       63.3247802023       10.9196859054  TIP3      5300            0.0000000000
     33273      5436  TIP3      H1             19.8245578294       62.7957203838       10.4781988043  TIP3      5300            0.0000000000
     33274      5436  TIP3      H2             19.4514457147       64.2205663410       10.7250800924  TIP3      5300            0.0000000000
     33275      5437  TIP3      OH2            37.3262798921       59.2902990818       16.2389695888  TIP3      5301            0.0000000000
     33276      5437  TIP3      H1             36.6143898150       59.8089616450       16.6376673708  TIP3      5301            0.0000000000
     33277      5437  TIP3      H2             36.7882945230       58.6862463629       15.6995603954  TIP3      5301            0.0000000000
     33278      5438  TIP3      OH2            36.7643843785       59.1743034853        1.6370057375  TIP3      5302            0.0000000000
     33279      5438  TIP3      H1             36.9723806526       58.6486418194        0.8469215572  TIP3      5302            0.0000000000
     33280      5438  TIP3      H2             37.5898933325       59.6897262975        1.7597286859  TIP3      5302            0.0000000000
     33281      5439  TIP3      OH2            19.5887051082       59.1200036915        4.6374775126  TIP3      5303            0.0000000000
     33282      5439  TIP3      H1             18.6330409251       59.1256785793        4.7310599907  TIP3      5303            0.0000000000
     33283      5439  TIP3      H2             19.7370393272       59.8678905948        4.0067586422  TIP3      5303            0.0000000000
     33284      5440  TIP3      OH2            19.1685919536       57.7083442125       13.0239613883  TIP3      5304            0.0000000000
     33285      5440  TIP3      H1             18.6061124682       57.4131137216       13.7661000285  TIP3      5304            0.0000000000
     33286      5440  TIP3      H2             18.8162042496       58.5796653211       12.8088080772  TIP3      5304            0.0000000000
     33287      5441  TIP3      OH2            36.0450702884       56.9572994152       14.9477803625  TIP3      5305            0.0000000000
     33288      5441  TIP3      H1             35.2742691989       57.4066616367       14.5665221649  TIP3      5305            0.0000000000
     33289      5441  TIP3      H2             36.0691543882       56.1222733036       14.4275200627  TIP3      5305            0.0000000000
     33290      5442  TIP3      OH2            28.8208740660       58.2149748225        8.5485108250  TIP3      5306            0.0000000000
     33291      5442  TIP3      H1             28.1325668141       57.8925974816        9.1623582831  TIP3      5306            0.0000000000
     33292      5442  TIP3      H2             29.5177967272       57.5597482468        8.6699760648  TIP3      5306            0.0000000000
     33293      5443  TIP3      OH2            34.9318898494       56.8553022237        9.1372128043  TIP3      5307            0.0000000000
     33294      5443  TIP3      H1             35.5734807131       57.3378752559        8.5742956729  TIP3      5307            0.0000000000
     33295      5443  TIP3      H2             34.0700823155       57.0835473447        8.7086847742  TIP3      5307            0.0000000000
     33296      5444  TIP3      OH2            36.5934405881       57.7599300881        7.1494848081  TIP3      5308            0.0000000000
     33297      5444  TIP3      H1             37.3815299460       57.2777970099        6.7987059499  TIP3      5308            0.0000000000
     33298      5444  TIP3      H2             37.0073297964       58.6378573246        7.3507105176  TIP3      5308            0.0000000000
     33299      5445  TIP3      OH2            21.6828372828       56.8034458079        7.1162114570  TIP3      5309            0.0000000000
     33300      5445  TIP3      H1             20.8056522627       56.7917478381        6.6596494589  TIP3      5309            0.0000000000
     33301      5445  TIP3      H2             22.0651946050       55.9580783558        6.7939144190  TIP3      5309            0.0000000000
     33302      5446  TIP3      OH2            20.3227417559       56.8852823963        2.7408123027  TIP3      5310            0.0000000000
     33303      5446  TIP3      H1             20.9776946346       57.5741234772        2.4964939974  TIP3      5310            0.0000000000
     33304      5446  TIP3      H2             19.9161764872       57.3025534860        3.5286075552  TIP3      5310            0.0000000000
     33305      5447  TIP3      OH2            26.5750631633       56.9253804535        6.7542900583  TIP3      5311            0.0000000000
     33306      5447  TIP3      H1             26.8450684251       57.4122073315        5.9549092270  TIP3      5311            0.0000000000
     33307      5447  TIP3      H2             27.4602761083       56.6029130001        7.0115239196  TIP3      5311            0.0000000000
     33308      5448  TIP3      OH2            32.4180996692       56.9213113731        8.1300071209  TIP3      5312            0.0000000000
     33309      5448  TIP3      H1             31.9453455403       57.2790294052        7.3695605277  TIP3      5312            0.0000000000
     33310      5448  TIP3      H2             31.8327857224       56.1749457612        8.4019203460  TIP3      5312            0.0000000000
     33311      5449  TIP3      OH2            33.4146496968       57.0314133650        3.6789300645  TIP3      5313            0.0000000000
     33312      5449  TIP3      H1             32.7237624711       57.2637089874        3.0390276972  TIP3      5313            0.0000000000
     33313      5449  TIP3      H2             32.9669536817       56.2835008984        4.1314062178  TIP3      5313            0.0000000000
     33314      5450  TIP3      OH2            22.0470747186       58.4990153848        1.3172056675  TIP3      5314            0.0000000000
     33315      5450  TIP3      H1             22.7878351785       57.8655909034        1.1838552752  TIP3      5314            0.0000000000
     33316      5450  TIP3      H2             22.5383348375       59.3003284066        1.5406004219  TIP3      5314            0.0000000000
     33317      5451  TIP3      OH2            27.4273021617       59.5036325051        3.6584830608  TIP3      5315            0.0000000000
     33318      5451  TIP3      H1             28.0053387176       58.8809390585        4.1273291685  TIP3      5315            0.0000000000
     33319      5451  TIP3      H2             27.6937781427       60.3276045914        4.1204482078  TIP3      5315            0.0000000000
     33320      5452  TIP3      OH2            21.8773293311       57.8021789911       16.6676365266  TIP3      5316            0.0000000000
     33321      5452  TIP3      H1             21.4130194923       56.9461897839       16.6811861538  TIP3      5316            0.0000000000
     33322      5452  TIP3      H2             22.6795852634       57.5436208205       17.1714727212  TIP3      5316            0.0000000000
     33323      5453  TIP3      OH2            23.8622344619       57.1161514983       18.3600103777  TIP3      5317            0.0000000000
     33324      5453  TIP3      H1             24.7151530751       57.2796920127       17.9186004122  TIP3      5317            0.0000000000
     33325      5453  TIP3      H2             24.0089788078       56.1818400271       18.5847801503  TIP3      5317            0.0000000000
     33326      5454  TIP3      OH2            32.3178297791       56.4191368518       18.3084631856  TIP3      5318            0.0000000000
     33327      5454  TIP3      H1             32.4510607077       56.0382797331       19.2064912807  TIP3      5318            0.0000000000
     33328      5454  TIP3      H2             33.1886642814       56.2116227280       17.9088927941  TIP3      5318            0.0000000000
     33329      5455  TIP3      OH2            49.0979865596       65.5546698072       10.1821714242  TIP3      5319            0.0000000000
     33330      5455  TIP3      H1             49.2975494635       65.2437310618       11.0884128272  TIP3      5319            0.0000000000
     33331      5455  TIP3      H2             48.2428603877       65.1455186502       10.0144631621  TIP3      5319            0.0000000000
     33332      5456  TIP3      OH2            40.4165153622       65.4991970950       11.3002331825  TIP3      5320            0.0000000000
     33333      5456  TIP3      H1             39.7593935018       64.8953316109       11.6933761857  TIP3      5320            0.0000000000
     33334      5456  TIP3      H2             40.3617741776       66.2125670014       11.9685116039  TIP3      5320            0.0000000000
     33335      5457  TIP3      OH2            39.1749515262       63.1167024686        5.4159197879  TIP3      5321            0.0000000000
     33336      5457  TIP3      H1             38.8208630453       63.9019570245        5.8693473241  TIP3      5321            0.0000000000
     33337      5457  TIP3      H2             38.4065654718       62.8480856333        4.8860639792  TIP3      5321            0.0000000000
     33338      5458  TIP3      OH2            38.7225787021       65.7046645160        8.8681426130  TIP3      5322            0.0000000000
     33339      5458  TIP3      H1             39.3432193579       65.1259751088        9.3445121136  TIP3      5322            0.0000000000
     33340      5458  TIP3      H2             39.3685460719       66.1662403116        8.3061429566  TIP3      5322            0.0000000000
     33341      5459  TIP3      OH2            55.2922113540       59.8578918409       10.7671391864  TIP3      5323            0.0000000000
     33342      5459  TIP3      H1             55.7704174260       60.2780482706       11.5084738926  TIP3      5323            0.0000000000
     33343      5459  TIP3      H2             55.9898351901       59.8333361606       10.0958148927  TIP3      5323            0.0000000000
     33344      5460  TIP3      OH2            50.0367117204       62.4800869008       11.1697329112  TIP3      5324            0.0000000000
     33345      5460  TIP3      H1             50.2007586295       61.5112946199       11.1555551173  TIP3      5324            0.0000000000
     33346      5460  TIP3      H2             49.9762995779       62.6647923707       10.2028900936  TIP3      5324            0.0000000000
     33347      5461  TIP3      OH2            43.8184039069       60.0579614064        7.6709658800  TIP3      5325            0.0000000000
     33348      5461  TIP3      H1             43.7324316439       60.9812222786        7.3469428655  TIP3      5325            0.0000000000
     33349      5461  TIP3      H2             43.1726565872       59.5944117789        7.0988688816  TIP3      5325            0.0000000000
     33350      5462  TIP3      OH2            50.7032970148       60.7022597003        7.0487516574  TIP3      5326            0.0000000000
     33351      5462  TIP3      H1             51.3203127004       60.1846960535        7.6106068864  TIP3      5326            0.0000000000
     33352      5462  TIP3      H2             51.3412898659       61.3326316530        6.6661264601  TIP3      5326            0.0000000000
     33353      5463  TIP3      OH2            40.0429101283       63.0180184772        8.7232796829  TIP3      5327            0.0000000000
     33354      5463  TIP3      H1             40.6561022053       62.5568184202        9.3095156361  TIP3      5327            0.0000000000
     33355      5463  TIP3      H2             40.3016148120       62.6154822182        7.8683155941  TIP3      5327            0.0000000000
     33356      5464  TIP3      OH2            45.0018263606       64.2329128109        8.4182914003  TIP3      5328            0.0000000000
     33357      5464  TIP3      H1             45.8458088376       63.7388989236        8.5145150138  TIP3      5328            0.0000000000
     33358      5464  TIP3      H2             44.4893201962       63.6064955613        7.8580948311  TIP3      5328            0.0000000000
     33359      5465  TIP3      OH2            55.7042971761       61.1348632331       13.5610056443  TIP3      5329            0.0000000000
     33360      5465  TIP3      H1             54.8791551840       61.6458147219       13.3708992948  TIP3      5329            0.0000000000
     33361      5465  TIP3      H2             55.8942071441       61.4605573674       14.4465373774  TIP3      5329            0.0000000000
     33362      5466  TIP3      OH2            41.9521138056       59.6735470685       12.3786240421  TIP3      5330            0.0000000000
     33363      5466  TIP3      H1             41.5357409533       60.0031384943       11.5733444274  TIP3      5330            0.0000000000
     33364      5466  TIP3      H2             41.2580270953       59.9151662489       13.0295263726  TIP3      5330            0.0000000000
     33365      5467  TIP3      OH2            52.8826460399       60.3045821571        8.6746263864  TIP3      5331            0.0000000000
     33366      5467  TIP3      H1             53.2800201366       59.6425463370        9.2626796451  TIP3      5331            0.0000000000
     33367      5467  TIP3      H2             53.2581051802       61.1147298076        9.0688941694  TIP3      5331            0.0000000000
     33368      5468  TIP3      OH2            42.0377708953       61.0677119741        9.9272287125  TIP3      5332            0.0000000000
     33369      5468  TIP3      H1             42.8772568500       60.7929686162       10.3403321648  TIP3      5332            0.0000000000
     33370      5468  TIP3      H2             42.2920608540       60.9194825229        9.0037111321  TIP3      5332            0.0000000000
     33371      5469  TIP3      OH2            52.9605492870       59.4728449588       12.3786270533  TIP3      5333            0.0000000000
     33372      5469  TIP3      H1             52.2818677581       59.8905758620       11.8108666785  TIP3      5333            0.0000000000
     33373      5469  TIP3      H2             53.7747756062       59.7209906627       11.8904847507  TIP3      5333            0.0000000000
     33374      5470  TIP3      OH2            45.7358182095       56.7885060405        9.8267037480  TIP3      5334            0.0000000000
     33375      5470  TIP3      H1             45.4940660284       55.8606189824        9.6900668320  TIP3      5334            0.0000000000
     33376      5470  TIP3      H2             44.8463520236       57.1784286807        9.9967678310  TIP3      5334            0.0000000000
     33377      5471  TIP3      OH2            48.2867591168       65.4040581508        4.2093283426  TIP3      5335            0.0000000000
     33378      5471  TIP3      H1             48.0663899091       66.1666865975        4.7792487994  TIP3      5335            0.0000000000
     33379      5471  TIP3      H2             49.1322036667       65.6627990652        3.7802961759  TIP3      5335            0.0000000000
     33380      5472  TIP3      OH2            48.2818565783       64.3143662721        1.2571453821  TIP3      5336            0.0000000000
     33381      5472  TIP3      H1             48.3128780768       64.6232700515        2.1751246928  TIP3      5336            0.0000000000
     33382      5472  TIP3      H2             48.7987370004       63.4979557771        1.2876862157  TIP3      5336            0.0000000000
     33383      5473  TIP3      OH2            55.4067269649       64.6688443890       12.5239026699  TIP3      5337            0.0000000000
     33384      5473  TIP3      H1             55.8450820486       65.5058559798       12.3083499229  TIP3      5337            0.0000000000
     33385      5473  TIP3      H2             55.9542692767       63.9980875550       12.0510653320  TIP3      5337            0.0000000000
     33386      5474  TIP3      OH2            51.9243740723       65.4472271260        5.5904113816  TIP3      5338            0.0000000000
     33387      5474  TIP3      H1             51.4449700387       65.9338025405        6.3097784924  TIP3      5338            0.0000000000
     33388      5474  TIP3      H2             52.7638742750       65.2322969494        6.0299528282  TIP3      5338            0.0000000000
     33389      5475  TIP3      OH2            51.7204477543       64.2655451555       14.2568389783  TIP3      5339            0.0000000000
     33390      5475  TIP3      H1             51.5278507820       64.8443079936       15.0199067274  TIP3      5339            0.0000000000
     33391      5475  TIP3      H2             50.9272237178       64.3844560485       13.6885087687  TIP3      5339            0.0000000000
     33392      5476  TIP3      OH2            43.7328563371       65.1095890477       10.5644264151  TIP3      5340            0.0000000000
     33393      5476  TIP3      H1             44.1361372382       64.8856417954        9.6933684842  TIP3      5340            0.0000000000
     33394      5476  TIP3      H2             43.5977132987       66.0757803711       10.4303356673  TIP3      5340            0.0000000000
     33395      5477  TIP3      OH2            50.8808267822       65.4364985745        3.1666454169  TIP3      5341            0.0000000000
     33396      5477  TIP3      H1             51.2571147659       65.2785936462        4.0651100263  TIP3      5341            0.0000000000
     33397      5477  TIP3      H2             51.6452886222       65.7606177352        2.6659513349  TIP3      5341            0.0000000000
     33398      5478  TIP3      OH2            41.2188100177        0.5326042862       14.1505321768  TIP3      5342            0.0000000000
     33399      5478  TIP3      H1             41.1855190596        0.9932060813       15.0143793137  TIP3      5342            0.0000000000
     33400      5478  TIP3      H2             40.4426620965       -0.0509176014       14.2281107468  TIP3      5342            0.0000000000
     33401      5479  TIP3      OH2            54.5341554912       56.5983764021        3.1767519269  TIP3      5343            0.0000000000
     33402      5479  TIP3      H1             53.5533023807       56.6066408930        3.2972108425  TIP3      5343            0.0000000000
     33403      5479  TIP3      H2             54.6256433901       57.2611687132        2.4723930461  TIP3      5343            0.0000000000
     33404      5480  TIP3      OH2            41.7867894899       65.4890040987        4.9596386302  TIP3      5344            0.0000000000
     33405      5480  TIP3      H1             42.3082194685       66.0110203367        4.3373275367  TIP3      5344            0.0000000000
     33406      5480  TIP3      H2             41.5156565739       64.7362196796        4.4203937549  TIP3      5344            0.0000000000
     33407      5481  TIP3      OH2            53.9412029694       62.5797232165       16.1575812705  TIP3      5345            0.0000000000
     33408      5481  TIP3      H1             53.1175579207       62.9257860661       15.7826357060  TIP3      5345            0.0000000000
     33409      5481  TIP3      H2             53.6336938626       61.8593390933       16.7294561199  TIP3      5345            0.0000000000
     33410      5482  TIP3      OH2            43.3929481784       57.8838043089       10.5637043181  TIP3      5346            0.0000000000
     33411      5482  TIP3      H1             42.4832107744       57.9705797325       10.2000372293  TIP3      5346            0.0000000000
     33412      5482  TIP3      H2             43.2106749383       58.0271547506       11.5103738526  TIP3      5346            0.0000000000
     33413      5483  TIP3      OH2            48.1817821859       57.4336315225       14.0295229906  TIP3      5347            0.0000000000
     33414      5483  TIP3      H1             48.5527522087       56.8945433092       14.7543150672  TIP3      5347            0.0000000000
     33415      5483  TIP3      H2             47.2951836076       57.0332549812       13.9042079528  TIP3      5347            0.0000000000
     33416      5484  TIP3      OH2            50.8947359465       61.5794020501       15.0170730753  TIP3      5348            0.0000000000
     33417      5484  TIP3      H1             50.1775425393       61.5003603534       15.6916289972  TIP3      5348            0.0000000000
     33418      5484  TIP3      H2             50.9794454383       62.5409233641       14.8722809946  TIP3      5348            0.0000000000
     33419      5485  TIP3      OH2            47.9451665672       60.4000782770        1.3475626507  TIP3      5349            0.0000000000
     33420      5485  TIP3      H1             47.4945325694       60.2646379333        2.2020324800  TIP3      5349            0.0000000000
     33421      5485  TIP3      H2             47.7116637284       59.5738963546        0.8997519929  TIP3      5349            0.0000000000
     33422      5486  TIP3      OH2            43.9331387250       62.4641087046       11.5378158620  TIP3      5350            0.0000000000
     33423      5486  TIP3      H1             42.9964736530       62.4320059131       11.8154748334  TIP3      5350            0.0000000000
     33424      5486  TIP3      H2             43.8956033764       63.2008095514       10.8964443903  TIP3      5350            0.0000000000
     33425      5487  TIP3      OH2            43.4621816730       62.6145146438        6.8753981391  TIP3      5351            0.0000000000
     33426      5487  TIP3      H1             42.5251669751       62.4614883041        6.6549225756  TIP3      5351            0.0000000000
     33427      5487  TIP3      H2             43.8893120385       62.5463362910        5.9884361953  TIP3      5351            0.0000000000
     33428      5488  TIP3      OH2            49.3042442138       63.4937472764        5.8366440821  TIP3      5352            0.0000000000
     33429      5488  TIP3      H1             48.8784657002       64.1989005524        5.2923263338  TIP3      5352            0.0000000000
     33430      5488  TIP3      H2             49.8596867214       63.0803602648        5.1438819590  TIP3      5352            0.0000000000
     33431      5489  TIP3      OH2            48.8936773246       63.4754471504       16.3284615539  TIP3      5353            0.0000000000
     33432      5489  TIP3      H1             48.5003279994       62.6953976562       16.7624713481  TIP3      5353            0.0000000000
     33433      5489  TIP3      H2             49.2474973159       63.9393366541       17.1033522074  TIP3      5353            0.0000000000
     33434      5490  TIP3      OH2            49.6842892284       62.7034748317        8.5116672996  TIP3      5354            0.0000000000
     33435      5490  TIP3      H1             49.6922873063       63.2458060773        7.6970437156  TIP3      5354            0.0000000000
     33436      5490  TIP3      H2             49.8865889853       61.8259581800        8.1211569037  TIP3      5354            0.0000000000
     33437      5491  TIP3      OH2            41.6246231062       62.5917873214       13.0941198363  TIP3      5355            0.0000000000
     33438      5491  TIP3      H1             41.1270325432       62.9772210449       13.8294868122  TIP3      5355            0.0000000000
     33439      5491  TIP3      H2             41.4067746514       61.6532273907       13.2846391979  TIP3      5355            0.0000000000
     33440      5492  TIP3      OH2            44.7716297083       60.4940354041        0.3815820249  TIP3      5356            0.0000000000
     33441      5492  TIP3      H1             44.5136606032       60.1797215510        1.2750781188  TIP3      5356            0.0000000000
     33442      5492  TIP3      H2             44.5294772003       61.4353581821        0.4510204621  TIP3      5356            0.0000000000
     33443      5493  TIP3      OH2            38.0687116030       60.0478193911        7.4313225144  TIP3      5357            0.0000000000
     33444      5493  TIP3      H1             38.7457046506       60.4828216214        7.9653719517  TIP3      5357            0.0000000000
     33445      5493  TIP3      H2             38.3287352646       60.3368217157        6.5419106783  TIP3      5357            0.0000000000
     33446      5494  TIP3      OH2            38.8803560681       60.7770124966        2.6510508296  TIP3      5358            0.0000000000
     33447      5494  TIP3      H1             39.6057767264       61.0220660161        2.0359983357  TIP3      5358            0.0000000000
     33448      5494  TIP3      H2             38.4937765664       61.6493935183        2.8383025780  TIP3      5358            0.0000000000
     33449      5495  TIP3      OH2            49.3904797661       64.4377062482       12.8230277231  TIP3      5359            0.0000000000
     33450      5495  TIP3      H1             49.6543061262       63.7397981833       12.1740638708  TIP3      5359            0.0000000000
     33451      5495  TIP3      H2             48.7994068502       63.9615247116       13.4392801781  TIP3      5359            0.0000000000
     33452      5496  TIP3      OH2            46.6134395769       60.4968304728        7.7703732073  TIP3      5360            0.0000000000
     33453      5496  TIP3      H1             45.6878405635       60.2389187842        7.9682003719  TIP3      5360            0.0000000000
     33454      5496  TIP3      H2             47.1179756860       59.8991282876        8.3737812643  TIP3      5360            0.0000000000
     33455      5497  TIP3      OH2            40.9054348961       61.5116888551        6.6548170586  TIP3      5361            0.0000000000
     33456      5497  TIP3      H1             40.3877009080       62.0221911540        5.9862177394  TIP3      5361            0.0000000000
     33457      5497  TIP3      H2             41.0990269984       60.6511220705        6.2086196777  TIP3      5361            0.0000000000
     33458      5498  TIP3      OH2            44.4798267633       62.1635786501        4.2462648797  TIP3      5362            0.0000000000
     33459      5498  TIP3      H1             45.4448306646       62.2528587219        4.1776171124  TIP3      5362            0.0000000000
     33460      5498  TIP3      H2             44.2002039382       62.2943894668        3.3198915621  TIP3      5362            0.0000000000
     33461      5499  TIP3      OH2            50.6791691437       59.8588626678       10.7534788348  TIP3      5363            0.0000000000
     33462      5499  TIP3      H1             50.2055410892       59.3211966502       11.4169811009  TIP3      5363            0.0000000000
     33463      5499  TIP3      H2             50.4482326858       59.4473242426        9.9069034544  TIP3      5363            0.0000000000
     33464      5500  TIP3      OH2            43.6548104153       62.7401451204        1.4625415874  TIP3      5364            0.0000000000
     33465      5500  TIP3      H1             42.9181298153       62.7491404641        0.8183391607  TIP3      5364            0.0000000000
     33466      5500  TIP3      H2             44.2202646428       63.4730489127        1.1223095859  TIP3      5364            0.0000000000
     33467      5501  TIP3      OH2            47.0737427500       62.9264304579        9.5410146051  TIP3      5365            0.0000000000
     33468      5501  TIP3      H1             47.9682110063       62.8697661591        9.1350693960  TIP3      5365            0.0000000000
     33469      5501  TIP3      H2             46.7665320411       62.0096989174        9.4431481117  TIP3      5365            0.0000000000
     33470      5502  TIP3      OH2            41.9143615889       59.0760289416        5.8716132705  TIP3      5366            0.0000000000
     33471      5502  TIP3      H1             41.4572054288       58.2882517678        6.2511082757  TIP3      5366            0.0000000000
     33472      5502  TIP3      H2             42.3895360449       58.7012330999        5.1130178504  TIP3      5366            0.0000000000
     33473      5503  TIP3      OH2            46.1111099450       61.0530356771       12.0257365690  TIP3      5367            0.0000000000
     33474      5503  TIP3      H1             45.3628578880       61.6393974505       11.7668287896  TIP3      5367            0.0000000000
     33475      5503  TIP3      H2             46.8011286705       61.7282523228       12.1028267190  TIP3      5367            0.0000000000
     33476      5504  TIP3      OH2            50.5692350481       60.5425916603        2.0793176233  TIP3      5368            0.0000000000
     33477      5504  TIP3      H1             49.7105103038       60.5615068224        1.6179374833  TIP3      5368            0.0000000000
     33478      5504  TIP3      H2             50.7373025421       61.4878558292        2.2256318565  TIP3      5368            0.0000000000
     33479      5505  TIP3      OH2            50.8802457080       62.7870539682        3.6344376637  TIP3      5369            0.0000000000
     33480      5505  TIP3      H1             51.5843867542       62.5227817824        4.2529602982  TIP3      5369            0.0000000000
     33481      5505  TIP3      H2             51.2500416994       63.5940825079        3.2369318651  TIP3      5369            0.0000000000
     33482      5506  TIP3      OH2            39.1066698013       64.5720642359       14.3547127325  TIP3      5370            0.0000000000
     33483      5506  TIP3      H1             39.1170239659       64.2978967974       15.2941321644  TIP3      5370            0.0000000000
     33484      5506  TIP3      H2             38.2451406237       65.0078727283       14.2732054196  TIP3      5370            0.0000000000
     33485      5507  TIP3      OH2            45.9721840729       64.1995666376       16.9070859058  TIP3      5371            0.0000000000
     33486      5507  TIP3      H1             46.1012408650       63.2480447855       17.0600149782  TIP3      5371            0.0000000000
     33487      5507  TIP3      H2             46.4340165899       64.5434107762       17.6924793197  TIP3      5371            0.0000000000
     33488      5508  TIP3      OH2            56.0507339451       62.6021691666        3.4031020673  TIP3      5372            0.0000000000
     33489      5508  TIP3      H1             55.5111086935       62.2602939983        2.6730961749  TIP3      5372            0.0000000000
     33490      5508  TIP3      H2             56.0671332987       63.5519093628        3.1456513451  TIP3      5372            0.0000000000
     33491      5509  TIP3      OH2            40.3933118060       64.6063597670        1.0718586467  TIP3      5373            0.0000000000
     33492      5509  TIP3      H1             40.2558832074       65.1190926910        1.8877756164  TIP3      5373            0.0000000000
     33493      5509  TIP3      H2             39.8845366176       65.1762300124        0.4519452228  TIP3      5373            0.0000000000
     33494      5510  TIP3      OH2            40.6870049795       60.5813225675       14.5432060271  TIP3      5374            0.0000000000
     33495      5510  TIP3      H1             39.9477997697       61.0041280321       15.0330470780  TIP3      5374            0.0000000000
     33496      5510  TIP3      H2             40.7984855803       59.7727165086       15.0640084461  TIP3      5374            0.0000000000
     33497      5511  TIP3      OH2            49.5946059528       59.7299800134       13.3524546124  TIP3      5375            0.0000000000
     33498      5511  TIP3      H1             50.1380111076       60.1525359591       14.0447454812  TIP3      5375            0.0000000000
     33499      5511  TIP3      H2             49.4352740255       58.8380416253       13.7050122199  TIP3      5375            0.0000000000
     33500      5512  TIP3      OH2            49.9300499387       59.6846610807        4.6988936038  TIP3      5376            0.0000000000
     33501      5512  TIP3      H1             50.2920482339       60.1818978187        3.9422804287  TIP3      5376            0.0000000000
     33502      5512  TIP3      H2             50.3354210401       60.1365437938        5.4687634065  TIP3      5376            0.0000000000
     33503      5513  TIP3      OH2            47.1346172738       61.3941224156        5.0914145606  TIP3      5377            0.0000000000
     33504      5513  TIP3      H1             47.6565647724       62.1824146920        5.3150355927  TIP3      5377            0.0000000000
     33505      5513  TIP3      H2             46.7586449310       61.1487189562        5.9551364150  TIP3      5377            0.0000000000
     33506      5514  TIP3      OH2            47.9814416512       62.4705785754       13.9774257563  TIP3      5378            0.0000000000
     33507      5514  TIP3      H1             48.1805796295       62.8517418635       14.8627018438  TIP3      5378            0.0000000000
     33508      5514  TIP3      H2             48.8228247036       62.0396447018       13.7451171235  TIP3      5378            0.0000000000
     33509      5515  TIP3      OH2            47.7278791052       58.2862061410        5.7952597041  TIP3      5379            0.0000000000
     33510      5515  TIP3      H1             47.3080984777       58.9492136775        6.3650609123  TIP3      5379            0.0000000000
     33511      5515  TIP3      H2             48.5411108612       58.7842175766        5.5289650284  TIP3      5379            0.0000000000
     33512      5516  TIP3      OH2            43.6988332246       59.6875299976        2.6643717135  TIP3      5380            0.0000000000
     33513      5516  TIP3      H1             43.3449933640       60.3653755048        3.2524603394  TIP3      5380            0.0000000000
     33514      5516  TIP3      H2             44.4416762804       59.3184311640        3.1847795231  TIP3      5380            0.0000000000
     33515      5517  TIP3      OH2            53.5264593947       59.7207796211       15.1468371689  TIP3      5381            0.0000000000
     33516      5517  TIP3      H1             52.7841328181       60.3142260992       15.3368549533  TIP3      5381            0.0000000000
     33517      5517  TIP3      H2             53.5013197611       59.7398672308       14.1698155522  TIP3      5381            0.0000000000
     33518      5518  TIP3      OH2            52.7900485994       64.3811756567        8.7878755993  TIP3      5382            0.0000000000
     33519      5518  TIP3      H1             51.9221731722       64.2541780242        9.1970878560  TIP3      5382            0.0000000000
     33520      5518  TIP3      H2             53.3377000134       63.7794589050        9.3510119727  TIP3      5382            0.0000000000
     33521      5519  TIP3      OH2            40.5436113176       61.9506253655        0.8423868555  TIP3      5383            0.0000000000
     33522      5519  TIP3      H1             40.5751309979       62.9036000159        1.0843122728  TIP3      5383            0.0000000000
     33523      5519  TIP3      H2             40.0781355889       61.9737881427        0.0001325683  TIP3      5383            0.0000000000
     33524      5520  TIP3      OH2            40.7814022621       57.6029863146        9.8713563382  TIP3      5384            0.0000000000
     33525      5520  TIP3      H1             40.6932775538       57.4072069268        8.9115460615  TIP3      5384            0.0000000000
     33526      5520  TIP3      H2             40.7399999271       56.6753301811       10.2243462533  TIP3      5384            0.0000000000
     33527      5521  TIP3      OH2            39.9612655964       64.5367790245       17.1135372009  TIP3      5385            0.0000000000
     33528      5521  TIP3      H1             40.5917768913       63.8934465424       17.5011960391  TIP3      5385            0.0000000000
     33529      5521  TIP3      H2             39.4867004615       64.8407124642       17.9147269145  TIP3      5385            0.0000000000
     33530      5522  TIP3      OH2            44.2470084288       63.8932327993       14.8988979840  TIP3      5386            0.0000000000
     33531      5522  TIP3      H1             44.8015603498       64.0678890066       15.6932941408  TIP3      5386            0.0000000000
     33532      5522  TIP3      H2             44.9274095094       64.0813856037       14.2050616880  TIP3      5386            0.0000000000
     33533      5523  TIP3      OH2            45.6127326493       64.3301180518        0.5643632015  TIP3      5387            0.0000000000
     33534      5523  TIP3      H1             45.6565747132       64.1589127067       -0.3862818222  TIP3      5387            0.0000000000
     33535      5523  TIP3      H2             46.5616873755       64.2905551897        0.8282934642  TIP3      5387            0.0000000000
     33536      5524  TIP3      OH2            44.8231084715       61.2975385101       15.1608107567  TIP3      5388            0.0000000000
     33537      5524  TIP3      H1             44.2460078415       60.6716106122       14.6862092522  TIP3      5388            0.0000000000
     33538      5524  TIP3      H2             44.4470180255       62.1784258880       14.9250707549  TIP3      5388            0.0000000000
     33539      5525  TIP3      OH2            44.3257235718       59.2997030237       13.3382629791  TIP3      5389            0.0000000000
     33540      5525  TIP3      H1             44.7227298796       59.7845651987       12.5896708179  TIP3      5389            0.0000000000
     33541      5525  TIP3      H2             43.3633053941       59.3958707130       13.1247989427  TIP3      5389            0.0000000000
     33542      5526  TIP3      OH2            46.0702542130       64.6251098858       13.1536793767  TIP3      5390            0.0000000000
     33543      5526  TIP3      H1             46.9091813092       64.2399318267       12.8562802483  TIP3      5390            0.0000000000
     33544      5526  TIP3      H2             46.3685817559       65.5148944272       13.4377157096  TIP3      5390            0.0000000000
     33545      5527  TIP3      OH2            50.1766407688       62.7146953556       18.9448279925  TIP3      5391            0.0000000000
     33546      5527  TIP3      H1             50.1403079632       61.8289156193       19.3697541262  TIP3      5391            0.0000000000
     33547      5527  TIP3      H2             51.1277595132       62.8285650606       18.8537345203  TIP3      5391            0.0000000000
     33548      5528  TIP3      OH2            52.4649360773       65.3973370619       16.6910904471  TIP3      5392            0.0000000000
     33549      5528  TIP3      H1             52.3813615226       66.3049881532       17.0204667506  TIP3      5392            0.0000000000
     33550      5528  TIP3      H2             53.3903894687       65.3672973695       16.3974650159  TIP3      5392            0.0000000000
     33551      5529  TIP3      OH2            41.9855662771       62.8636549441       17.4869799493  TIP3      5393            0.0000000000
     33552      5529  TIP3      H1             41.9226274519       61.8996139447       17.4011498996  TIP3      5393            0.0000000000
     33553      5529  TIP3      H2             42.5148484321       63.1012715025       16.7180990161  TIP3      5393            0.0000000000
     33554      5530  TIP3      OH2            45.6146319924       57.0069597050       13.3693920391  TIP3      5394            0.0000000000
     33555      5530  TIP3      H1             45.0528210652       57.8187113514       13.4499481045  TIP3      5394            0.0000000000
     33556      5530  TIP3      H2             44.9315216165       56.3646547724       13.0967719618  TIP3      5394            0.0000000000
     33557      5531  TIP3      OH2            46.3904079714       61.3679181978       17.2940010757  TIP3      5395            0.0000000000
     33558      5531  TIP3      H1             45.9477307266       60.9793672877       18.0741690273  TIP3      5395            0.0000000000
     33559      5531  TIP3      H2             45.7195580695       61.2299251218       16.5948364459  TIP3      5395            0.0000000000
     33560      5532  TIP3      OH2            48.8867907881       60.5835569034       16.5522083097  TIP3      5396            0.0000000000
     33561      5532  TIP3      H1             48.0225199578       60.5867275525       17.0240132188  TIP3      5396            0.0000000000
     33562      5532  TIP3      H2             49.4573838858       60.0184967359       17.1356846200  TIP3      5396            0.0000000000
     33563      5533  TIP3      OH2            50.3934786614       59.0796403040       18.1541668896  TIP3      5397            0.0000000000
     33564      5533  TIP3      H1             50.7592548841       58.1826706301       18.3192095844  TIP3      5397            0.0000000000
     33565      5533  TIP3      H2             50.0086805244       59.2769727486       19.0261093966  TIP3      5397            0.0000000000
     33566      5534  TIP3      OH2            40.7799973587       60.1897074196       18.0995866782  TIP3      5398            0.0000000000
     33567      5534  TIP3      H1             41.0302050588       59.3243934966       17.7140344276  TIP3      5398            0.0000000000
     33568      5534  TIP3      H2             41.0625788707       60.0369975290       19.0379257989  TIP3      5398            0.0000000000
     33569      5535  TIP3      OH2            45.3702445406       56.4886366610       16.1393191314  TIP3      5399            0.0000000000
     33570      5535  TIP3      H1             45.9745377231       55.7750309027       16.4100540934  TIP3      5399            0.0000000000
     33571      5535  TIP3      H2             45.4838886567       56.5115977681       15.1733740579  TIP3      5399            0.0000000000
     33572      5536  TIP3      OH2            45.9352914397       58.4292788167       17.9072789997  TIP3      5400            0.0000000000
     33573      5536  TIP3      H1             45.6310556850       57.5762260235       17.5187859836  TIP3      5400            0.0000000000
     33574      5536  TIP3      H2             45.1837947832       58.6954687754       18.4730406947  TIP3      5400            0.0000000000
     33575      5537  TIP3      OH2            55.9818836212       65.5683204002        5.8680344165  TIP3      5401            0.0000000000
     33576      5537  TIP3      H1             55.2560647361       64.9041022005        5.9202237275  TIP3      5401            0.0000000000
     33577      5537  TIP3      H2             56.2521279511       65.6328116758        6.8130203633  TIP3      5401            0.0000000000
     33578      5538  TIP3      OH2            56.3019034026       64.9959736879        2.1456167450  TIP3      5402            0.0000000000
     33579      5538  TIP3      H1             55.4475155629       65.4262963666        2.3734118059  TIP3      5402            0.0000000000
     33580      5538  TIP3      H2             56.9208802353       65.6480164197        2.5250448138  TIP3      5402            0.0000000000
     33581      5539  TIP3      OH2            54.0443187715       62.6852048527        0.8888657733  TIP3      5403            0.0000000000
     33582      5539  TIP3      H1             54.7853525276       63.2183809453        0.5687629026  TIP3      5403            0.0000000000
     33583      5539  TIP3      H2             54.2730827880       61.8110306678        0.5103530860  TIP3      5403            0.0000000000
     33584      5540  TIP3      OH2            53.9873121304       63.8016041804        6.4368340667  TIP3      5404            0.0000000000
     33585      5540  TIP3      H1             53.5266990500       62.9671470465        6.2286419998  TIP3      5404            0.0000000000
     33586      5540  TIP3      H2             53.5702164182       64.0062687845        7.3032345681  TIP3      5404            0.0000000000
     33587      5541  TIP3      OH2            55.8521961531       64.1148459755       17.2500110412  TIP3      5405            0.0000000000
     33588      5541  TIP3      H1             55.1870161010       63.6996276982       16.6583580373  TIP3      5405            0.0000000000
     33589      5541  TIP3      H2             56.5232659248       63.3982100515       17.3047811391  TIP3      5405            0.0000000000
     33590      5542  TIP3      OH2            53.8069160827       60.0202755915       -0.1066767489  TIP3      5406            0.0000000000
     33591      5542  TIP3      H1             54.2678930099       59.2882851276        0.3299239691  TIP3      5406            0.0000000000
     33592      5542  TIP3      H2             52.8726770048       59.8924912803        0.1224166068  TIP3      5406            0.0000000000
     33593      5543  TIP3      OH2            52.8021677227       61.6298818865        5.4673516218  TIP3      5407            0.0000000000
     33594      5543  TIP3      H1             52.9946804258       60.6886265534        5.6949311436  TIP3      5407            0.0000000000
     33595      5543  TIP3      H2             53.4641154500       61.7340146010        4.7655421822  TIP3      5407            0.0000000000
     33596      5544  TIP3      OH2            54.1134694366       62.4808059834       10.1529249947  TIP3      5408            0.0000000000
     33597      5544  TIP3      H1             55.0540875066       62.6867338889       10.3398311713  TIP3      5408            0.0000000000
     33598      5544  TIP3      H2             53.7701264583       62.4587823814       11.0694841455  TIP3      5408            0.0000000000
     33599      5545  TIP3      OH2            53.6769309882       62.6806682992       12.8497075274  TIP3      5409            0.0000000000
     33600      5545  TIP3      H1             52.8466911127       63.1283450515       13.1129427618  TIP3      5409            0.0000000000
     33601      5545  TIP3      H2             54.2851526047       63.4599004146       12.8311712169  TIP3      5409            0.0000000000
     33602      5546  TIP3      OH2            38.9376758272       61.4911469378       16.3215913963  TIP3      5410            0.0000000000
     33603      5546  TIP3      H1             39.4636239069       61.2257484751       17.1019552554  TIP3      5410            0.0000000000
     33604      5546  TIP3      H2             38.4428739927       60.6491888709       16.2096399910  TIP3      5410            0.0000000000
     33605      5547  TIP3      OH2            55.9891097819       56.9123042927       18.1095143830  TIP3      5411            0.0000000000
     33606      5547  TIP3      H1             56.4487546909       56.1731175540       17.6584340179  TIP3      5411            0.0000000000
     33607      5547  TIP3      H2             56.2684238373       57.6627727715       17.5440362285  TIP3      5411            0.0000000000
     33608      5548  TIP3      OH2            53.5309413290       59.0435011786        5.4332399961  TIP3      5412            0.0000000000
     33609      5548  TIP3      H1             54.2786147287       58.7974121442        6.0221256798  TIP3      5412            0.0000000000
     33610      5548  TIP3      H2             53.4282589884       58.2503127983        4.8843423243  TIP3      5412            0.0000000000
     33611      5549  TIP3      OH2            39.4314181106       59.9406452071       10.5477046784  TIP3      5413            0.0000000000
     33612      5549  TIP3      H1             39.7307636272       59.0567252454       10.2455136510  TIP3      5413            0.0000000000
     33613      5549  TIP3      H2             40.2087181420       60.4726575883       10.3203168550  TIP3      5413            0.0000000000
     33614      5550  TIP3      OH2            38.0298398687       63.2485928863       10.5794162150  TIP3      5414            0.0000000000
     33615      5550  TIP3      H1             38.7220335256       62.7542679617       10.1013623559  TIP3      5414            0.0000000000
     33616      5550  TIP3      H2             37.9028431656       64.0031909663        9.9855858272  TIP3      5414            0.0000000000
     33617      5551  TIP3      OH2            56.1990856747       59.2392661378       16.6562346608  TIP3      5415            0.0000000000
     33618      5551  TIP3      H1             55.5334136530       59.5042671195       17.3290073757  TIP3      5415            0.0000000000
     33619      5551  TIP3      H2             55.5838164996       58.9289822148       15.9639381732  TIP3      5415            0.0000000000
     33620      5552  TIP3      OH2            56.0873063779       59.0763691218        1.3561992033  TIP3      5416            0.0000000000
     33621      5552  TIP3      H1             55.7769005432       58.3564093251        0.7879439129  TIP3      5416            0.0000000000
     33622      5552  TIP3      H2             56.9328077720       59.2896091991        0.8980565356  TIP3      5416            0.0000000000
     33623      5553  TIP3      OH2            38.4606255566       58.9665799808        4.5350163972  TIP3      5417            0.0000000000
     33624      5553  TIP3      H1             37.5317212019       58.7202196979        4.5605331834  TIP3      5417            0.0000000000
     33625      5553  TIP3      H2             38.4835988325       59.5256696470        3.7244202046  TIP3      5417            0.0000000000
     33626      5554  TIP3      OH2            38.0485838357       57.7419343671       12.9704880422  TIP3      5418            0.0000000000
     33627      5554  TIP3      H1             37.4929545845       57.2906610194       13.6334947726  TIP3      5418            0.0000000000
     33628      5554  TIP3      H2             37.4797305538       58.4578121770       12.6585724773  TIP3      5418            0.0000000000
     33629      5555  TIP3      OH2            54.9285437224       57.0009023644       14.8155553173  TIP3      5419            0.0000000000
     33630      5555  TIP3      H1             54.1618669774       57.4653349331       14.4515209399  TIP3      5419            0.0000000000
     33631      5555  TIP3      H2             54.9652006868       56.1906218275       14.2790903057  TIP3      5419            0.0000000000
     33632      5556  TIP3      OH2            47.6184699203       58.6016084706        9.4432345586  TIP3      5420            0.0000000000
     33633      5556  TIP3      H1             46.8315447951       58.1237389377        9.7787635163  TIP3      5420            0.0000000000
     33634      5556  TIP3      H2             48.0769511621       57.8984355041        8.9712371405  TIP3      5420            0.0000000000
     33635      5557  TIP3      OH2            53.4126494803       56.9051328504        9.0153500496  TIP3      5421            0.0000000000
     33636      5557  TIP3      H1             54.0428984446       57.4452786472        8.4855917578  TIP3      5421            0.0000000000
     33637      5557  TIP3      H2             52.5566586890       57.1038400420        8.5671069351  TIP3      5421            0.0000000000
     33638      5558  TIP3      OH2            55.2516170437       58.0184739896        7.2394167447  TIP3      5422            0.0000000000
     33639      5558  TIP3      H1             55.9394407403       57.4786834915        6.7920612215  TIP3      5422            0.0000000000
     33640      5558  TIP3      H2             55.8097243185       58.7867420351        7.5254618965  TIP3      5422            0.0000000000
     33641      5559  TIP3      OH2            40.7254501026       57.0192427351        7.1397468519  TIP3      5423            0.0000000000
     33642      5559  TIP3      H1             39.8756941085       56.8950298708        6.6620546275  TIP3      5423            0.0000000000
     33643      5559  TIP3      H2             41.1641106287       56.1559896618        6.9704155935  TIP3      5423            0.0000000000
     33644      5560  TIP3      OH2            39.3196864796       56.9425963503        2.5559764017  TIP3      5424            0.0000000000
     33645      5560  TIP3      H1             39.9338036931       57.5839526847        2.1221222023  TIP3      5424            0.0000000000
     33646      5560  TIP3      H2             38.9693599048       57.4720518666        3.2947500305  TIP3      5424            0.0000000000
     33647      5561  TIP3      OH2            45.1214906498       56.8572080529        6.9575976540  TIP3      5425            0.0000000000
     33648      5561  TIP3      H1             45.9999616608       56.8962401637        6.5507743602  TIP3      5425            0.0000000000
     33649      5561  TIP3      H2             45.2851570532       57.1551264080        7.8624911083  TIP3      5425            0.0000000000
     33650      5562  TIP3      OH2            50.9636628865       56.8745310008        7.7979574158  TIP3      5426            0.0000000000
     33651      5562  TIP3      H1             50.7104050939       56.6392101683        6.8861972476  TIP3      5426            0.0000000000
     33652      5562  TIP3      H2             50.4411909903       56.2257515402        8.3289887898  TIP3      5426            0.0000000000
     33653      5563  TIP3      OH2            51.9399950670       56.9614571725        3.7453806082  TIP3      5427            0.0000000000
     33654      5563  TIP3      H1             51.3194268451       57.7050061108        3.7264848242  TIP3      5427            0.0000000000
     33655      5563  TIP3      H2             51.4331613735       56.2880814781        4.2689756253  TIP3      5427            0.0000000000
     33656      5564  TIP3      OH2            41.0671636169       58.5748358670        1.3521938149  TIP3      5428            0.0000000000
     33657      5564  TIP3      H1             41.8661350553       58.1611111259        0.9784525423  TIP3      5428            0.0000000000
     33658      5564  TIP3      H2             41.3787503437       59.4901449707        1.4633091474  TIP3      5428            0.0000000000
     33659      5565  TIP3      OH2            46.3971472447       59.2659298060        3.6078642340  TIP3      5429            0.0000000000
     33660      5565  TIP3      H1             46.7776243207       58.7637276181        4.3591144464  TIP3      5429            0.0000000000
     33661      5565  TIP3      H2             46.6247184100       60.1668532735        3.9317721692  TIP3      5429            0.0000000000
     33662      5566  TIP3      OH2            40.5429805670       57.6972237776       16.4800870478  TIP3      5430            0.0000000000
     33663      5566  TIP3      H1             39.9857246343       56.8909122554       16.4980179397  TIP3      5430            0.0000000000
     33664      5566  TIP3      H2             41.2897390201       57.4109146300       17.0542571598  TIP3      5430            0.0000000000
     33665      5567  TIP3      OH2            42.4757929203       56.9128418615       18.2044396344  TIP3      5431            0.0000000000
     33666      5567  TIP3      H1             43.2765863133       56.6380368018       17.7298760162  TIP3      5431            0.0000000000
     33667      5567  TIP3      H2             42.4125483494       56.1860324188       18.8448834089  TIP3      5431            0.0000000000
     33668      5568  TIP3      OH2            51.0324763191       56.4923816210       18.1947072100  TIP3      5432            0.0000000000
     33669      5568  TIP3      H1             50.5323061801       55.8788054823       17.6295833249  TIP3      5432            0.0000000000
     33670      5568  TIP3      H2             51.9581745678       56.2275569968       17.9842544023  TIP3      5432            0.0000000000
     33671      5569  TIP3      OH2            59.3928595177       65.3352851111       11.3601308678  TIP3      5433            0.0000000000
     33672      5569  TIP3      H1             59.9305485189       64.5246040174       11.4432315221  TIP3      5433            0.0000000000
     33673      5569  TIP3      H2             59.6047363677       65.7817924811       12.1963224535  TIP3      5433            0.0000000000
     33674      5570  TIP3      OH2            57.6497064267       63.4399479776        5.4039105777  TIP3      5434            0.0000000000
     33675      5570  TIP3      H1             57.1607824012       64.2563595453        5.6278863454  TIP3      5434            0.0000000000
     33676      5570  TIP3      H2             56.9954677332       63.0424088641        4.7962309652  TIP3      5434            0.0000000000
     33677      5571  TIP3      OH2            57.2397892363       65.6965258413        8.4071274176  TIP3      5435            0.0000000000
     33678      5571  TIP3      H1             57.5519368031       64.7781909767        8.4745406517  TIP3      5435            0.0000000000
     33679      5571  TIP3      H2             57.9696671546       66.1673776283        8.8266288126  TIP3      5435            0.0000000000
     33680      5572  TIP3      OH2            61.9408654621       60.2010165296        7.9904989291  TIP3      5436            0.0000000000
     33681      5572  TIP3      H1             62.1449084252       61.0709298757        7.5721663461  TIP3      5436            0.0000000000
     33682      5572  TIP3      H2             61.5068673356       59.7490437489        7.2337883096  TIP3      5436            0.0000000000
     33683      5573  TIP3      OH2            58.6505133075       63.0934623540        8.7035557728  TIP3      5437            0.0000000000
     33684      5573  TIP3      H1             59.2339705965       62.5794839476        9.2856816293  TIP3      5437            0.0000000000
     33685      5573  TIP3      H2             58.8848126139       62.6793264537        7.8474323099  TIP3      5437            0.0000000000
     33686      5574  TIP3      OH2            64.1323846901       64.1609087372        8.4713712848  TIP3      5438            0.0000000000
     33687      5574  TIP3      H1             65.0285282908       63.7871955928        8.4874355561  TIP3      5438            0.0000000000
     33688      5574  TIP3      H2             63.6082134513       63.3912514921        8.1608692852  TIP3      5438            0.0000000000
     33689      5575  TIP3      OH2            60.9170231347       59.6043625525       12.2865591883  TIP3      5439            0.0000000000
     33690      5575  TIP3      H1             60.5531111965       60.1035750775       11.5271147490  TIP3      5439            0.0000000000
     33691      5575  TIP3      H2             60.2007060583       59.7876226601       12.9382948497  TIP3      5439            0.0000000000
     33692      5576  TIP3      OH2            60.6941531977       61.3825236905       10.1150104784  TIP3      5440            0.0000000000
     33693      5576  TIP3      H1             61.4150636190       61.7869280670       10.6555305110  TIP3      5440            0.0000000000
     33694      5576  TIP3      H2             61.2188394342       61.0162968921        9.3641700090  TIP3      5440            0.0000000000
     33695      5577  TIP3      OH2            64.6412601201       56.8760428651        9.9364930655  TIP3      5441            0.0000000000
     33696      5577  TIP3      H1             64.5841974664       56.2432321610       10.6603660190  TIP3      5441            0.0000000000
     33697      5577  TIP3      H2             63.7793153478       57.3464206631       10.0485081149  TIP3      5441            0.0000000000
     33698      5578  TIP3      OH2            62.6940121247       64.9211270555       10.7882783129  TIP3      5442            0.0000000000
     33699      5578  TIP3      H1             63.2359422238       64.7741375710        9.9825961002  TIP3      5442            0.0000000000
     33700      5578  TIP3      H2             62.7228346935       65.9023093899       10.7685818000  TIP3      5442            0.0000000000
     33701      5579  TIP3      OH2            60.7205977369       -0.2062031290       14.2225709043  TIP3      5443            0.0000000000
     33702      5579  TIP3      H1             60.7419118846        0.5237410928       14.8791952570  TIP3      5443            0.0000000000
     33703      5579  TIP3      H2             59.8815126279       -0.6064240340       14.4959069038  TIP3      5443            0.0000000000
     33704      5580  TIP3      OH2            61.2554262729       65.7446165556        4.8014018838  TIP3      5444            0.0000000000
     33705      5580  TIP3      H1             61.2599158595       66.2979436214        4.0155254000  TIP3      5444            0.0000000000
     33706      5580  TIP3      H2             60.8545588965       64.9305315354        4.4736075205  TIP3      5444            0.0000000000
     33707      5581  TIP3      OH2            62.2107289486       57.8374035261       10.7032904086  TIP3      5445            0.0000000000
     33708      5581  TIP3      H1             61.3138302489       57.8018746564       10.3028476596  TIP3      5445            0.0000000000
     33709      5581  TIP3      H2             62.0256356934       58.4218728216       11.4665733100  TIP3      5445            0.0000000000
     33710      5582  TIP3      OH2            62.4593858657       62.4601159084       11.8470532793  TIP3      5446            0.0000000000
     33711      5582  TIP3      H1             61.6170558806       62.5266007035       12.3364993660  TIP3      5446            0.0000000000
     33712      5582  TIP3      H2             62.5203366033       63.3756713426       11.4898401342  TIP3      5446            0.0000000000
     33713      5583  TIP3      OH2            62.3943787997       62.6255948278        6.9323967360  TIP3      5447            0.0000000000
     33714      5583  TIP3      H1             61.4462189514       62.6414372497        6.7107870340  TIP3      5447            0.0000000000
     33715      5583  TIP3      H2             62.8144645649       62.4205043535        6.0650584775  TIP3      5447            0.0000000000
     33716      5584  TIP3      OH2            59.7513370134       62.7066225907       12.9650203657  TIP3      5448            0.0000000000
     33717      5584  TIP3      H1             59.8340768856       63.2480777153       13.7616338863  TIP3      5448            0.0000000000
     33718      5584  TIP3      H2             59.3278665190       61.8907372822       13.2944244095  TIP3      5448            0.0000000000
     33719      5585  TIP3      OH2            63.6193364830       60.6320997857        1.0045462332  TIP3      5449            0.0000000000
     33720      5585  TIP3      H1             63.0253948537       60.1881921437        1.6471758228  TIP3      5449            0.0000000000
     33721      5585  TIP3      H2             63.2887681294       61.5429946085        1.1146031133  TIP3      5449            0.0000000000
     33722      5586  TIP3      OH2            56.9058095769       60.0071155039        7.8198293885  TIP3      5450            0.0000000000
     33723      5586  TIP3      H1             57.6229412324       60.0212851074        8.4850656112  TIP3      5450            0.0000000000
     33724      5586  TIP3      H2             57.2480600638       60.5417534631        7.0912034773  TIP3      5450            0.0000000000
     33725      5587  TIP3      OH2            58.2373277486       60.9265761501        2.9515483265  TIP3      5451            0.0000000000
     33726      5587  TIP3      H1             58.5831514805       61.1532645518        2.0614075208  TIP3      5451            0.0000000000
     33727      5587  TIP3      H2             57.5739827946       61.6273773169        3.1228568486  TIP3      5451            0.0000000000
     33728      5588  TIP3      OH2            64.6480050400       60.1089561046        7.8416456906  TIP3      5452            0.0000000000
     33729      5588  TIP3      H1             63.6970772121       59.9649750391        8.0406431419  TIP3      5452            0.0000000000
     33730      5588  TIP3      H2             64.9913790079       60.4923993500        8.6599373321  TIP3      5452            0.0000000000
     33731      5589  TIP3      OH2            59.7319084659       61.9278964549        6.4358023923  TIP3      5453            0.0000000000
     33732      5589  TIP3      H1             59.1597999544       62.4477678611        5.8223076769  TIP3      5453            0.0000000000
     33733      5589  TIP3      H2             59.8186763720       61.0842057972        5.9580859450  TIP3      5453            0.0000000000
     33734      5590  TIP3      OH2            63.5286514808       62.2420258178        4.4131834687  TIP3      5454            0.0000000000
     33735      5590  TIP3      H1             64.4722639666       62.4154571741        4.5542281583  TIP3      5454            0.0000000000
     33736      5590  TIP3      H2             63.3600801963       62.5488831725        3.4979730387  TIP3      5454            0.0000000000
     33737      5591  TIP3      OH2            62.4725615071       62.9629115804        1.8413393359  TIP3      5455            0.0000000000
     33738      5591  TIP3      H1             61.6355344254       62.9560295217        1.3430577414  TIP3      5455            0.0000000000
     33739      5591  TIP3      H2             62.9868023864       63.6349338553        1.3522621742  TIP3      5455            0.0000000000
     33740      5592  TIP3      OH2            61.0244752064       58.8281329750        5.9403996784  TIP3      5456            0.0000000000
     33741      5592  TIP3      H1             60.3870735425       58.2799010696        6.4423478510  TIP3      5456            0.0000000000
     33742      5592  TIP3      H2             61.7485530416       58.2097122590        5.7555715648  TIP3      5456            0.0000000000
     33743      5593  TIP3      OH2            64.7923676319       61.3131094769       12.2737794097  TIP3      5457            0.0000000000
     33744      5593  TIP3      H1             64.0019367127       61.8939940998       12.2534146406  TIP3      5457            0.0000000000
     33745      5593  TIP3      H2             65.3855837546       61.8758687601       11.7362884600  TIP3      5457            0.0000000000
     33746      5594  TIP3      OH2            57.8737713085       64.5263668251       14.3605317796  TIP3      5458            0.0000000000
     33747      5594  TIP3      H1             57.2589911729       64.4527587213       15.0980988724  TIP3      5458            0.0000000000
     33748      5594  TIP3      H2             57.3535375051       65.0415346138       13.7037955147  TIP3      5458            0.0000000000
     33749      5595  TIP3      OH2            64.7092717668       63.9286756136       16.3589894542  TIP3      5459            0.0000000000
     33750      5595  TIP3      H1             63.8972913417       63.6612401503       15.8841942402  TIP3      5459            0.0000000000
     33751      5595  TIP3      H2             65.3963616716       63.5469438028       15.7956864763  TIP3      5459            0.0000000000
     33752      5596  TIP3      OH2            59.5956692705       64.9425864692        1.0768173420  TIP3      5460            0.0000000000
     33753      5596  TIP3      H1             59.4595366421       65.4890953624        1.8705839082  TIP3      5460            0.0000000000
     33754      5596  TIP3      H2             59.0822670973       65.4585511451        0.4193878931  TIP3      5460            0.0000000000
     33755      5597  TIP3      OH2            59.0041715247       60.1273298022       14.0846973669  TIP3      5461            0.0000000000
     33756      5597  TIP3      H1             58.1797707270       60.4626719807       14.4685728944  TIP3      5461            0.0000000000
     33757      5597  TIP3      H2             59.2020288258       59.4314845884       14.7259094539  TIP3      5461            0.0000000000
     33758      5598  TIP3      OH2             0.2783435778       61.6534829153        5.1963462064  TIP3      5462            0.0000000000
     33759      5598  TIP3      H1              0.8238990364       61.0748259356        4.6339983362  TIP3      5462            0.0000000000
     33760      5598  TIP3      H2             -0.1166988023       61.0019634210        5.8124668703  TIP3      5462            0.0000000000
     33761      5599  TIP3      OH2            62.0276487389       59.6230669134        2.9148878923  TIP3      5463            0.0000000000
     33762      5599  TIP3      H1             61.7888623224       60.3831057230        3.4601551912  TIP3      5463            0.0000000000
     33763      5599  TIP3      H2             62.6469581308       59.1685258378        3.5239161339  TIP3      5463            0.0000000000
     33764      5600  TIP3      OH2            59.2783995209       62.2573927205        0.6449684622  TIP3      5464            0.0000000000
     33765      5600  TIP3      H1             59.4978668049       63.1506460855        0.9847994185  TIP3      5464            0.0000000000
     33766      5600  TIP3      H2             58.4588757895       62.4213929576        0.1489356137  TIP3      5464            0.0000000000
     33767      5601  TIP3      OH2            59.6275983327       57.5266531616        9.9515724671  TIP3      5465            0.0000000000
     33768      5601  TIP3      H1             59.6210356792       57.3936002235        8.9756035864  TIP3      5465            0.0000000000
     33769      5601  TIP3      H2             59.4431226060       56.6030751872       10.2407771745  TIP3      5465            0.0000000000
     33770      5602  TIP3      OH2            59.2689570804       64.3168940229       17.7157738985  TIP3      5466            0.0000000000
     33771      5602  TIP3      H1             58.7398112875       63.5169311051       17.5556205962  TIP3      5466            0.0000000000
     33772      5602  TIP3      H2             58.6129562930       64.9349902304       18.1028528390  TIP3      5466            0.0000000000
     33773      5603  TIP3      OH2            62.4183008437       63.6369134051       14.5366636557  TIP3      5467            0.0000000000
     33774      5603  TIP3      H1             61.7735188709       64.3522659381       14.4095193417  TIP3      5467            0.0000000000
     33775      5603  TIP3      H2             63.1149932300       63.9086194562       13.9137371695  TIP3      5467            0.0000000000
     33776      5604  TIP3      OH2            64.5950028892       64.4196344634        0.4154536779  TIP3      5468            0.0000000000
     33777      5604  TIP3      H1             64.5294078457       64.2046912650       -0.5278414788  TIP3      5468            0.0000000000
     33778      5604  TIP3      H2             65.2155903714       65.1492146269        0.4816787503  TIP3      5468            0.0000000000
     33779      5605  TIP3      OH2            63.2643987871       61.2861665813       15.5359913637  TIP3      5469            0.0000000000
     33780      5605  TIP3      H1             63.3997305830       60.6298974711       14.8174249385  TIP3      5469            0.0000000000
     33781      5605  TIP3      H2             62.8357771708       62.0221230904       15.0407869434  TIP3      5469            0.0000000000
     33782      5606  TIP3      OH2            63.2986092948       59.4241633966       13.4683642975  TIP3      5470            0.0000000000
     33783      5606  TIP3      H1             63.9251980317       60.0056406079       12.9743564313  TIP3      5470            0.0000000000
     33784      5606  TIP3      H2             62.4624728341       59.6814657922       13.0223760631  TIP3      5470            0.0000000000
     33785      5607  TIP3      OH2            65.0829075155       64.9148179528       13.5202148746  TIP3      5471            0.0000000000
     33786      5607  TIP3      H1             65.5774340662       65.5285778237       12.9349378804  TIP3      5471            0.0000000000
     33787      5607  TIP3      H2             64.4392427165       65.5488310546       13.8918867377  TIP3      5471            0.0000000000
     33788      5608  TIP3      OH2            61.8808439546       62.1342131865       17.7081710705  TIP3      5472            0.0000000000
     33789      5608  TIP3      H1             60.9411278701       62.1054786283       17.4648928362  TIP3      5472            0.0000000000
     33790      5608  TIP3      H2             62.3003241233       61.8033616871       16.8786101768  TIP3      5472            0.0000000000
     33791      5609  TIP3      OH2            64.1147961290       56.9014379992       13.3944573585  TIP3      5473            0.0000000000
     33792      5609  TIP3      H1             63.8835249556       57.8322296358       13.6355902579  TIP3      5473            0.0000000000
     33793      5609  TIP3      H2             63.2266577498       56.4990258711       13.3353793234  TIP3      5473            0.0000000000
     33794      5610  TIP3      OH2            65.2383312111       61.0945802711       17.5411826388  TIP3      5474            0.0000000000
     33795      5610  TIP3      H1             64.7025142330       60.8943887193       18.3361864128  TIP3      5474            0.0000000000
     33796      5610  TIP3      H2             64.5584962697       61.0853189173       16.8443080292  TIP3      5474            0.0000000000
     33797      5611  TIP3      OH2            59.5424619473       60.3558255010       17.9382683257  TIP3      5475            0.0000000000
     33798      5611  TIP3      H1             59.4340123443       59.6187677197       17.2912463372  TIP3      5475            0.0000000000
     33799      5611  TIP3      H2             59.7851467572       59.8736489586       18.7455964483  TIP3      5475            0.0000000000
     33800      5612  TIP3      OH2            64.6991857832       56.5912812117       16.1090197426  TIP3      5476            0.0000000000
     33801      5612  TIP3      H1             65.3418411908       55.8786602888       16.2877531582  TIP3      5476            0.0000000000
     33802      5612  TIP3      H2             64.6004033906       56.5885832171       15.1369843019  TIP3      5476            0.0000000000
     33803      5613  TIP3      OH2            64.2254084899       57.8245347997       18.6986129045  TIP3      5477            0.0000000000
     33804      5613  TIP3      H1             64.3280369602       57.4281800123       17.8124948596  TIP3      5477            0.0000000000
     33805      5613  TIP3      H2             64.4886190332       58.7452313342       18.5710056207  TIP3      5477            0.0000000000
     33806      5614  TIP3      OH2            57.5343515303       62.0062901680       17.4028560309  TIP3      5478            0.0000000000
     33807      5614  TIP3      H1             58.4096388995       61.5605020366       17.5194224653  TIP3      5478            0.0000000000
     33808      5614  TIP3      H2             56.9929220533       61.1948869029       17.3665704087  TIP3      5478            0.0000000000
     33809      5615  TIP3      OH2            58.3648567026       59.9046899273       10.1961466921  TIP3      5479            0.0000000000
     33810      5615  TIP3      H1             58.7123815631       58.9790910837       10.1753546695  TIP3      5479            0.0000000000
     33811      5615  TIP3      H2             59.1815740644       60.4326010906       10.1079062371  TIP3      5479            0.0000000000
     33812      5616  TIP3      OH2            56.7190639430       62.9886340871       10.8568228659  TIP3      5480            0.0000000000
     33813      5616  TIP3      H1             57.0838398509       62.2881669793       10.2880823611  TIP3      5480            0.0000000000
     33814      5616  TIP3      H2             57.4186500544       63.6593059824       10.7630366186  TIP3      5480            0.0000000000
     33815      5617  TIP3      OH2            57.0268155296       58.9882030077        4.5484185739  TIP3      5481            0.0000000000
     33816      5617  TIP3      H1             56.1411510528       58.7371081247        4.2816149338  TIP3      5481            0.0000000000
     33817      5617  TIP3      H2             57.2626584748       59.6151327652        3.8298886605  TIP3      5481            0.0000000000
     33818      5618  TIP3      OH2            57.0772172841       57.6012358918       13.2143790066  TIP3      5482            0.0000000000
     33819      5618  TIP3      H1             56.4026861599       57.3672187853       13.8813024920  TIP3      5482            0.0000000000
     33820      5618  TIP3      H2             56.6488043490       58.2991448449       12.7014060481  TIP3      5482            0.0000000000
     33821      5619  TIP3      OH2            59.2644093929       57.0192663435        7.2804510690  TIP3      5483            0.0000000000
     33822      5619  TIP3      H1             58.3651095257       57.0266723924        6.8821054806  TIP3      5483            0.0000000000
     33823      5619  TIP3      H2             59.6477448344       56.2511563840        6.8065316823  TIP3      5483            0.0000000000
     33824      5620  TIP3      OH2            58.3676109749       56.7983910721        2.9650929372  TIP3      5484            0.0000000000
     33825      5620  TIP3      H1             58.9458986472       57.3520087355        2.3830648224  TIP3      5484            0.0000000000
     33826      5620  TIP3      H2             58.0274980223       57.4849398536        3.5707314893  TIP3      5484            0.0000000000
     33827      5621  TIP3      OH2            63.8562262921       56.8276473292        7.3605731385  TIP3      5485            0.0000000000
     33828      5621  TIP3      H1             64.3423296397       57.5417108642        6.9139613405  TIP3      5485            0.0000000000
     33829      5621  TIP3      H2             64.2000220699       56.8713028991        8.2867343770  TIP3      5485            0.0000000000
     33830      5622  TIP3      OH2            59.8932170539       58.4099116253        1.4894242272  TIP3      5486            0.0000000000
     33831      5622  TIP3      H1             60.5652095601       57.9125064952        1.0060348035  TIP3      5486            0.0000000000
     33832      5622  TIP3      H2             60.2539114021       59.3077891201        1.5759697176  TIP3      5486            0.0000000000
     33833      5623  TIP3      OH2            64.4518456966       59.3451404065        4.3107043153  TIP3      5487            0.0000000000
     33834      5623  TIP3      H1             65.3693499899       58.9910921614        4.3059114700  TIP3      5487            0.0000000000
     33835      5623  TIP3      H2             64.5282562865       60.1314101734        3.7568126131  TIP3      5487            0.0000000000
     33836      5624  TIP3      OH2            59.2022226415       57.8378055729       16.5517066512  TIP3      5488            0.0000000000
     33837      5624  TIP3      H1             58.4195208076       57.2538628355       16.5446653922  TIP3      5488            0.0000000000
     33838      5624  TIP3      H2             59.8900670696       57.2954629164       16.9823965858  TIP3      5488            0.0000000000
     33839      5625  TIP3      OH2            61.4415246334       56.7866087206       18.5303746903  TIP3      5489            0.0000000000
     33840      5625  TIP3      H1             62.2444598843       56.8450039047       17.9773567194  TIP3      5489            0.0000000000
     33841      5625  TIP3      H2             61.6107030463       55.9095664864       18.9185479387  TIP3      5489            0.0000000000
     33842      5626  TIP3      OH2            11.2151026135        8.1144745679       19.8083655979  TIP3      5490            0.0000000000
     33843      5626  TIP3      H1             11.8109198088        8.8817731713       19.8921612392  TIP3      5490            0.0000000000
     33844      5626  TIP3      H2             11.8444024706        7.4046966823       19.5381820430  TIP3      5490            0.0000000000
     33845      5627  TIP3      OH2            14.1184039339        9.7659674103       19.9068241868  TIP3      5491            0.0000000000
     33846      5627  TIP3      H1             14.0000669637       10.0639224646       18.9840588943  TIP3      5491            0.0000000000
     33847      5627  TIP3      H2             15.0926084448        9.8011737421       19.9841562093  TIP3      5491            0.0000000000
     33848      5628  TIP3      OH2             6.2248075614        4.3622939241       19.4787827228  TIP3      5492            0.0000000000
     33849      5628  TIP3      H1              5.6557958445        4.0502991608       20.2106996663  TIP3      5492            0.0000000000
     33850      5628  TIP3      H2              5.6686951979        5.0441253795       19.0670698648  TIP3      5492            0.0000000000
     33851      5629  TIP3      OH2             1.4973213316        4.9186474159       22.2007313542  TIP3      5493            0.0000000000
     33852      5629  TIP3      H1              1.8907776621        5.0678030389       21.3204624059  TIP3      5493            0.0000000000
     33853      5629  TIP3      H2              2.2679430584        5.0675105366       22.7743938925  TIP3      5493            0.0000000000
     33854      5630  TIP3      OH2            12.2950308064        3.7177643862       20.6619798619  TIP3      5494            0.0000000000
     33855      5630  TIP3      H1             11.4007046163        3.9093282127       20.3542687459  TIP3      5494            0.0000000000
     33856      5630  TIP3      H2             12.6497099215        4.5974808545       20.8843801152  TIP3      5494            0.0000000000
     33857      5631  TIP3      OH2            13.4164048016        6.3047151959       21.9668574025  TIP3      5495            0.0000000000
     33858      5631  TIP3      H1             14.3224761189        6.2450776804       22.3037922211  TIP3      5495            0.0000000000
     33859      5631  TIP3      H2             13.5793667065        6.6646637099       21.0804446882  TIP3      5495            0.0000000000
     33860      5632  TIP3      OH2            17.8931132213        5.6588048515       22.1213173450  TIP3      5496            0.0000000000
     33861      5632  TIP3      H1             17.7219638500        5.9114112554       21.1928725165  TIP3      5496            0.0000000000
     33862      5632  TIP3      H2             18.2710539041        6.5070518391       22.4584138274  TIP3      5496            0.0000000000
     33863      5633  TIP3      OH2             2.7068157886        8.9627883539       20.2267692046  TIP3      5497            0.0000000000
     33864      5633  TIP3      H1              3.0325345794        8.9643540560       21.1525379176  TIP3      5497            0.0000000000
     33865      5633  TIP3      H2              2.1655587575        9.7704103031       20.2065006543  TIP3      5497            0.0000000000
     33866      5634  TIP3      OH2            14.2444049718       13.1872920358       19.9579987549  TIP3      5498            0.0000000000
     33867      5634  TIP3      H1             14.7482600195       13.2793595652       20.7992313346  TIP3      5498            0.0000000000
     33868      5634  TIP3      H2             13.3561850329       13.0560965389       20.3120322060  TIP3      5498            0.0000000000
     33869      5635  TIP3      OH2            18.4923837982       17.0912314711       20.4071974765  TIP3      5499            0.0000000000
     33870      5635  TIP3      H1             18.2776460906       18.0372968098       20.3622939160  TIP3      5499            0.0000000000
     33871      5635  TIP3      H2             17.9818394233       16.7809558423       21.1712856539  TIP3      5499            0.0000000000
     33872      5636  TIP3      OH2             8.4055354321       14.2550823747       18.8272483929  TIP3      5500            0.0000000000
     33873      5636  TIP3      H1              7.8897122947       13.5981754385       18.3369712129  TIP3      5500            0.0000000000
     33874      5636  TIP3      H2              8.1887834028       14.0258526537       19.7663906029  TIP3      5500            0.0000000000
     33875      5637  TIP3      OH2             3.1355527005       10.6813490880       22.5209971978  TIP3      5501            0.0000000000
     33876      5637  TIP3      H1              3.3556091640       11.1563794323       23.3306399764  TIP3      5501            0.0000000000
     33877      5637  TIP3      H2              3.2495704879       11.3841312246       21.8564740302  TIP3      5501            0.0000000000
     33878      5638  TIP3      OH2             5.3204974310        2.9693131615       21.6604696692  TIP3      5502            0.0000000000
     33879      5638  TIP3      H1              4.9416843525        3.6048098478       22.3265433193  TIP3      5502            0.0000000000
     33880      5638  TIP3      H2              6.2714371284        3.1303399023       21.7504346317  TIP3      5502            0.0000000000
     33881      5639  TIP3      OH2             4.3196030313       12.7181972338       20.6824839549  TIP3      5503            0.0000000000
     33882      5639  TIP3      H1              4.8894538078       13.4681656884       20.9152370612  TIP3      5503            0.0000000000
     33883      5639  TIP3      H2              4.8935083814       12.2437221333       20.0356464054  TIP3      5503            0.0000000000
     33884      5640  TIP3      OH2             2.3699887960        5.8801696934       19.6460573878  TIP3      5504            0.0000000000
     33885      5640  TIP3      H1              2.7103152109        6.7728658044       19.8478080809  TIP3      5504            0.0000000000
     33886      5640  TIP3      H2              1.9653948528        5.9939717491       18.7716191402  TIP3      5504            0.0000000000
     33887      5641  TIP3      OH2            10.4799595246       16.2359518426       18.7649628631  TIP3      5505            0.0000000000
     33888      5641  TIP3      H1              9.8935232739       15.4529753153       18.9003430164  TIP3      5505            0.0000000000
     33889      5641  TIP3      H2             11.1957610127       15.8651337983       18.2172125084  TIP3      5505            0.0000000000
     33890      5642  TIP3      OH2            14.5706565198       15.5949056847       18.8809474363  TIP3      5506            0.0000000000
     33891      5642  TIP3      H1             14.6525725463       14.7191270190       19.3272137060  TIP3      5506            0.0000000000
     33892      5642  TIP3      H2             15.4144583835       15.6465783933       18.3856836576  TIP3      5506            0.0000000000
     33893      5643  TIP3      OH2             5.8770072590       11.4645252625       18.8220189849  TIP3      5507            0.0000000000
     33894      5643  TIP3      H1              6.1442132371       10.9221132570       19.5915279484  TIP3      5507            0.0000000000
     33895      5643  TIP3      H2              6.5923790570       11.2565968297       18.1864372009  TIP3      5507            0.0000000000
     33896      5644  TIP3      OH2            11.0323603861       13.0253749548       18.2209165186  TIP3      5508            0.0000000000
     33897      5644  TIP3      H1             10.4900103584       12.8793470955       19.0129538316  TIP3      5508            0.0000000000
     33898      5644  TIP3      H2             11.1039798921       12.1051399383       17.8881896249  TIP3      5508            0.0000000000
     33899      5645  TIP3      OH2             6.3826954638        9.9483899421       21.2481558396  TIP3      5509            0.0000000000
     33900      5645  TIP3      H1              5.8533789730        9.3207032201       21.7541200575  TIP3      5509            0.0000000000
     33901      5645  TIP3      H2              6.8741260833        9.3223190443       20.6871963568  TIP3      5509            0.0000000000
     33902      5646  TIP3      OH2             8.0681631338        7.9004149988       19.6312998593  TIP3      5510            0.0000000000
     33903      5646  TIP3      H1              7.5636856399        7.5924983658       18.8629262833  TIP3      5510            0.0000000000
     33904      5646  TIP3      H2              8.9684640562        7.9388697641       19.2738476826  TIP3      5510            0.0000000000
     33905      5647  TIP3      OH2            17.1335859722       10.1922393295       19.3225786877  TIP3      5511            0.0000000000
     33906      5647  TIP3      H1             17.2778348546        9.7092561554       18.5021215423  TIP3      5511            0.0000000000
     33907      5647  TIP3      H2             17.2535761108       11.1197146963       19.0364646939  TIP3      5511            0.0000000000
     33908      5648  TIP3      OH2             7.8239908761       18.0349244026       21.1436976668  TIP3      5512            0.0000000000
     33909      5648  TIP3      H1              8.7794411157       17.8996062850       21.1986767010  TIP3      5512            0.0000000000
     33910      5648  TIP3      H2              7.7736237640       18.7274408750       20.4618507866  TIP3      5512            0.0000000000
     33911      5649  TIP3      OH2             1.4812404538       13.1720611503       19.8580591406  TIP3      5513            0.0000000000
     33912      5649  TIP3      H1              2.4056158628       13.2401889852       20.1592841872  TIP3      5513            0.0000000000
     33913      5649  TIP3      H2              1.4893622182       12.3571700455       19.3095996646  TIP3      5513            0.0000000000
     33914      5650  TIP3      OH2            17.0281186736        6.6602856562       19.4581906713  TIP3      5514            0.0000000000
     33915      5650  TIP3      H1             17.3371840439        7.0926350740       18.6484238783  TIP3      5514            0.0000000000
     33916      5650  TIP3      H2             16.5684306941        5.8605543805       19.1203305814  TIP3      5514            0.0000000000
     33917      5651  TIP3      OH2            15.9747802828        4.1332266913       19.3435614421  TIP3      5515            0.0000000000
     33918      5651  TIP3      H1             16.5717746277        3.8004275125       20.0572582121  TIP3      5515            0.0000000000
     33919      5651  TIP3      H2             15.2646340189        3.4783831424       19.3446671184  TIP3      5515            0.0000000000
     33920      5652  TIP3      OH2            18.0150354761        2.6715115261       20.5420286147  TIP3      5516            0.0000000000
     33921      5652  TIP3      H1             18.0599595494        1.8148879226       20.0755923770  TIP3      5516            0.0000000000
     33922      5652  TIP3      H2             18.8755963073        2.6373404810       20.9847063736  TIP3      5516            0.0000000000
     33923      5653  TIP3      OH2             3.5933286460        1.1217042063       22.5926005502  TIP3      5517            0.0000000000
     33924      5653  TIP3      H1              4.0477271429        1.9718274572       22.4028010335  TIP3      5517            0.0000000000
     33925      5653  TIP3      H2              2.6881341125        1.3789768493       22.3528529118  TIP3      5517            0.0000000000
     33926      5654  TIP3      OH2             3.6431901999        2.2166448232       19.7377577019  TIP3      5518            0.0000000000
     33927      5654  TIP3      H1              4.1693368937        1.8186668542       19.0310200981  TIP3      5518            0.0000000000
     33928      5654  TIP3      H2              4.3240307361        2.6129629201       20.3140279074  TIP3      5518            0.0000000000
     33929      5655  TIP3      OH2            10.6332283461       17.8997168421       20.9660102340  TIP3      5519            0.0000000000
     33930      5655  TIP3      H1             11.0580218692       17.8852203766       20.0937992178  TIP3      5519            0.0000000000
     33931      5655  TIP3      H2             10.5313600460       16.9367097098       21.1015353129  TIP3      5519            0.0000000000
     33932      5656  TIP3      OH2             3.4936681728       17.7214391702       19.6886772881  TIP3      5520            0.0000000000
     33933      5656  TIP3      H1              3.0851222716       17.6288663397       20.5763386119  TIP3      5520            0.0000000000
     33934      5656  TIP3      H2              4.1692517734       17.0353308859       19.7951470843  TIP3      5520            0.0000000000
     33935      5657  TIP3      OH2            32.3791196737        8.2621944462       21.2882948474  TIP3      5521            0.0000000000
     33936      5657  TIP3      H1             32.4233230267        8.7779764328       22.1083678868  TIP3      5521            0.0000000000
     33937      5657  TIP3      H2             32.6461845409        8.9244047408       20.6073873378  TIP3      5521            0.0000000000
     33938      5658  TIP3      OH2            34.1307541278        1.7679581039       20.4941437054  TIP3      5522            0.0000000000
     33939      5658  TIP3      H1             34.5957662172        1.7681156554       21.3703702882  TIP3      5522            0.0000000000
     33940      5658  TIP3      H2             34.9178935404        1.7262437740       19.9342196540  TIP3      5522            0.0000000000
     33941      5659  TIP3      OH2            33.3216748673       10.2093009489       19.7349752792  TIP3      5523            0.0000000000
     33942      5659  TIP3      H1             33.1490961165       10.1065870727       18.7767486020  TIP3      5523            0.0000000000
     33943      5659  TIP3      H2             34.2768126528        9.9818911016       19.7467948845  TIP3      5523            0.0000000000
     33944      5660  TIP3      OH2            25.6579980031        3.8820147469       19.1205110505  TIP3      5524            0.0000000000
     33945      5660  TIP3      H1             25.2511564858        3.5821143733       19.9529202269  TIP3      5524            0.0000000000
     33946      5660  TIP3      H2             24.9721137017        4.4902924702       18.7689783203  TIP3      5524            0.0000000000
     33947      5661  TIP3      OH2            24.4655517849        6.8780098605       20.4226811985  TIP3      5525            0.0000000000
     33948      5661  TIP3      H1             23.6068154096        6.4839135626       20.6190701373  TIP3      5525            0.0000000000
     33949      5661  TIP3      H2             24.5803046770        6.6691259913       19.4728492384  TIP3      5525            0.0000000000
     33950      5662  TIP3      OH2            31.8929823888        5.6548950476       21.8749017727  TIP3      5526            0.0000000000
     33951      5662  TIP3      H1             32.6786789497        5.5177534387       22.4158564369  TIP3      5526            0.0000000000
     33952      5662  TIP3      H2             31.9961153169        6.5987458658       21.6203364916  TIP3      5526            0.0000000000
     33953      5663  TIP3      OH2            37.0622626247       17.0649694278       20.1006934364  TIP3      5527            0.0000000000
     33954      5663  TIP3      H1             37.4829484879       17.8783501010       19.7816257025  TIP3      5527            0.0000000000
     33955      5663  TIP3      H2             36.8100074635       17.2906296238       20.9996251257  TIP3      5527            0.0000000000
     33956      5664  TIP3      OH2            27.1121157002       14.3934743350       18.9418943681  TIP3      5528            0.0000000000
     33957      5664  TIP3      H1             27.1593213272       13.6345150826       18.3409515820  TIP3      5528            0.0000000000
     33958      5664  TIP3      H2             26.8930820455       13.9692801763       19.7810935683  TIP3      5528            0.0000000000
     33959      5665  TIP3      OH2            28.8903460552       14.9352947331       21.7758206401  TIP3      5529            0.0000000000
     33960      5665  TIP3      H1             27.9158217831       14.9937672938       21.8619145785  TIP3      5529            0.0000000000
     33961      5665  TIP3      H2             29.1190019825       15.8763028912       21.7080479863  TIP3      5529            0.0000000000
     33962      5666  TIP3      OH2            26.3235862409       15.6443538831       21.8318161335  TIP3      5530            0.0000000000
     33963      5666  TIP3      H1             26.3989000369       16.5583469462       21.5168033003  TIP3      5530            0.0000000000
     33964      5666  TIP3      H2             25.7638700736       15.7062991886       22.6277324209  TIP3      5530            0.0000000000
     33965      5667  TIP3      OH2            24.8565636340        3.3530292064       22.0109193985  TIP3      5531            0.0000000000
     33966      5667  TIP3      H1             25.0453069462        4.0511236153       22.6624849532  TIP3      5531            0.0000000000
     33967      5667  TIP3      H2             25.2516167574        2.5756963783       22.4257240804  TIP3      5531            0.0000000000
     33968      5668  TIP3      OH2            23.3231863422       13.5329042273       20.3218617013  TIP3      5532            0.0000000000
     33969      5668  TIP3      H1             23.1431233955       13.6067666091       21.2904212223  TIP3      5532            0.0000000000
     33970      5668  TIP3      H2             23.1021899372       12.6117555590       20.1926798815  TIP3      5532            0.0000000000
     33971      5669  TIP3      OH2            21.4141139386        6.0350227288       20.0055404071  TIP3      5533            0.0000000000
     33972      5669  TIP3      H1             21.5926484271        6.8483041119       20.5473275057  TIP3      5533            0.0000000000
     33973      5669  TIP3      H2             20.5913479258        5.7932725500       20.4485465330  TIP3      5533            0.0000000000
     33974      5670  TIP3      OH2            29.4212125428       16.4199128878       19.0925309035  TIP3      5534            0.0000000000
     33975      5670  TIP3      H1             28.7991387504       15.6631998978       19.1862166050  TIP3      5534            0.0000000000
     33976      5670  TIP3      H2             30.2189542083       16.0003264710       18.7125935671  TIP3      5534            0.0000000000
     33977      5671  TIP3      OH2            30.1934922081       13.0065281839       18.3399203946  TIP3      5535            0.0000000000
     33978      5671  TIP3      H1             30.0860041137       12.9327428328       19.3036090595  TIP3      5535            0.0000000000
     33979      5671  TIP3      H2             30.1657583039       12.0546245825       18.0911965450  TIP3      5535            0.0000000000
     33980      5672  TIP3      OH2            35.8855501483       10.1478008713       18.8883354056  TIP3      5536            0.0000000000
     33981      5672  TIP3      H1             35.6853132993        9.7216364900       18.0360096742  TIP3      5536            0.0000000000
     33982      5672  TIP3      H2             36.0580143791       11.0701095928       18.5962725723  TIP3      5536            0.0000000000
     33983      5673  TIP3      OH2            27.0117464578       18.5951354569       21.4500078723  TIP3      5537            0.0000000000
     33984      5673  TIP3      H1             27.9608579164       18.5880029723       21.6346642120  TIP3      5537            0.0000000000
     33985      5673  TIP3      H2             26.9528170601       19.1349732666       20.6358250450  TIP3      5537            0.0000000000
     33986      5674  TIP3      OH2            20.0794083386       13.2748518013       20.2168251760  TIP3      5538            0.0000000000
     33987      5674  TIP3      H1             20.2679742890       12.8124366182       21.0465584082  TIP3      5538            0.0000000000
     33988      5674  TIP3      H2             20.0446107414       12.5531667289       19.5657683491  TIP3      5538            0.0000000000
     33989      5675  TIP3      OH2            36.4917298689        6.2782464954       19.1059872984  TIP3      5539            0.0000000000
     33990      5675  TIP3      H1             35.9253255557        6.5353991573       18.3639622621  TIP3      5539            0.0000000000
     33991      5675  TIP3      H2             35.8594764178        5.7607641600       19.6322980469  TIP3      5539            0.0000000000
     33992      5676  TIP3      OH2            34.1348385131        4.4092707206       19.0731597293  TIP3      5540            0.0000000000
     33993      5676  TIP3      H1             34.9962591553        4.0499818170       18.7905724007  TIP3      5540            0.0000000000
     33994      5676  TIP3      H2             34.0660335360        4.0040434233       19.9514699143  TIP3      5540            0.0000000000
     33995      5677  TIP3      OH2            36.9294367631        3.4601136810       19.4592603085  TIP3      5541            0.0000000000
     33996      5677  TIP3      H1             37.0756529846        2.5312269955       19.7019516205  TIP3      5541            0.0000000000
     33997      5677  TIP3      H2             37.2288960337        3.9304660823       20.2527273322  TIP3      5541            0.0000000000
     33998      5678  TIP3      OH2            20.8442162456        1.2654627414       21.3039492738  TIP3      5542            0.0000000000
     33999      5678  TIP3      H1             21.5012997395        0.5208716071       21.2895005926  TIP3      5542            0.0000000000
     34000      5678  TIP3      H2             20.1581483594        0.8903356021       20.7348107950  TIP3      5542            0.0000000000
     34001      5679  TIP3      OH2            23.2916931331        2.6287758684       19.9256601781  TIP3      5543            0.0000000000
     34002      5679  TIP3      H1             23.2456600057        1.6852103794       19.7075302718  TIP3      5543            0.0000000000
     34003      5679  TIP3      H2             23.8744416189        2.6448387782       20.7115182037  TIP3      5543            0.0000000000
     34004      5680  TIP3      OH2            30.0136619421       17.4757524924       21.5340882899  TIP3      5544            0.0000000000
     34005      5680  TIP3      H1             30.7372810599       16.8140157212       21.6772043424  TIP3      5544            0.0000000000
     34006      5680  TIP3      H2             29.9349532789       17.3823665109       20.5599416789  TIP3      5544            0.0000000000
     34007      5681  TIP3      OH2            22.2558626383       17.0074394989       19.0594781132  TIP3      5545            0.0000000000
     34008      5681  TIP3      H1             22.4547518721       16.6211075303       19.9215214368  TIP3      5545            0.0000000000
     34009      5681  TIP3      H2             22.9381814857       16.5709114987       18.5229095237  TIP3      5545            0.0000000000
     34010      5682  TIP3      OH2            55.5734424967       14.6426538807       19.8037047638  TIP3      5546            0.0000000000
     34011      5682  TIP3      H1             55.3985727625       15.3831288382       19.2163835253  TIP3      5546            0.0000000000
     34012      5682  TIP3      H2             56.5290869281       14.6841624755       19.9257666967  TIP3      5546            0.0000000000
     34013      5683  TIP3      OH2            48.3024869908        2.2645201570       19.8679490565  TIP3      5547            0.0000000000
     34014      5683  TIP3      H1             47.8777632243        1.7246189389       20.5696839930  TIP3      5547            0.0000000000
     34015      5683  TIP3      H2             47.5431459301        2.3526553480       19.2499669217  TIP3      5547            0.0000000000
     34016      5684  TIP3      OH2            44.0012706110        3.3815014162       19.1032066191  TIP3      5548            0.0000000000
     34017      5684  TIP3      H1             43.8542769536        2.9451162781       19.9542028085  TIP3      5548            0.0000000000
     34018      5684  TIP3      H2             43.7986898882        4.3121922839       19.3651451444  TIP3      5548            0.0000000000
     34019      5685  TIP3      OH2            39.0181485190        4.7504861546       22.1428083911  TIP3      5549            0.0000000000
     34020      5685  TIP3      H1             39.8387956453        4.3349279722       21.8744716754  TIP3      5549            0.0000000000
     34021      5685  TIP3      H2             39.2537818720        4.8931731520       23.0847346402  TIP3      5549            0.0000000000
     34022      5686  TIP3      OH2            43.3309128786        5.7111251687       20.1059581212  TIP3      5550            0.0000000000
     34023      5686  TIP3      H1             42.9889540066        6.3136947391       19.4337817444  TIP3      5550            0.0000000000
     34024      5686  TIP3      H2             43.9080071130        6.3079163880       20.6003450466  TIP3      5550            0.0000000000
     34025      5687  TIP3      OH2            50.6734455689        3.2108352580       20.8898450519  TIP3      5551            0.0000000000
     34026      5687  TIP3      H1             49.9251682825        2.6123799142       20.6525226602  TIP3      5551            0.0000000000
     34027      5687  TIP3      H2             50.1758064767        3.9825036755       21.1807652755  TIP3      5551            0.0000000000
     34028      5688  TIP3      OH2            48.2492970545       12.5119180762       21.0923054924  TIP3      5552            0.0000000000
     34029      5688  TIP3      H1             48.0217783037       13.1572188498       21.7863098776  TIP3      5552            0.0000000000
     34030      5688  TIP3      H2             47.9276602337       11.6719889804       21.4747329878  TIP3      5552            0.0000000000
     34031      5689  TIP3      OH2            39.1599885416        9.0781858126       20.4336807723  TIP3      5553            0.0000000000
     34032      5689  TIP3      H1             39.8004741906        9.2367527743       21.1411726035  TIP3      5553            0.0000000000
     34033      5689  TIP3      H2             38.4295074411        8.7118598261       21.0122471875  TIP3      5553            0.0000000000
     34034      5690  TIP3      OH2            52.0368204012       13.1619964809       20.4727691998  TIP3      5554            0.0000000000
     34035      5690  TIP3      H1             52.1330461744       12.7451081734       21.3486982326  TIP3      5554            0.0000000000
     34036      5690  TIP3      H2             51.0821589902       13.1246775845       20.3007708586  TIP3      5554            0.0000000000
     34037      5691  TIP3      OH2            45.9708257861       14.2281239513       18.8211893112  TIP3      5555            0.0000000000
     34038      5691  TIP3      H1             45.4411108107       13.8483318721       18.0950653855  TIP3      5555            0.0000000000
     34039      5691  TIP3      H2             46.2597216657       13.4343482536       19.2993187945  TIP3      5555            0.0000000000
     34040      5692  TIP3      OH2            45.1830464740       16.0577534157       21.7791236226  TIP3      5556            0.0000000000
     34041      5692  TIP3      H1             45.5081632852       16.8086311313       21.2282421315  TIP3      5556            0.0000000000
     34042      5692  TIP3      H2             46.0066528511       15.7693918378       22.2167121122  TIP3      5556            0.0000000000
     34043      5693  TIP3      OH2            39.6763895296        6.5256437790       19.9697040654  TIP3      5557            0.0000000000
     34044      5693  TIP3      H1             39.3421202888        7.4219471904       20.1727197294  TIP3      5557            0.0000000000
     34045      5693  TIP3      H2             39.1415733103        5.9825011301       20.5817890456  TIP3      5557            0.0000000000
     34046      5694  TIP3      OH2            47.8430318033       16.3422515267       18.7402998252  TIP3      5558            0.0000000000
     34047      5694  TIP3      H1             47.3457102908       15.5222040693       18.9477336907  TIP3      5558            0.0000000000
     34048      5694  TIP3      H2             48.6619913013       15.9664810219       18.3544270217  TIP3      5558            0.0000000000
     34049      5695  TIP3      OH2            52.4346363505       15.4088760154       18.9188831767  TIP3      5559            0.0000000000
     34050      5695  TIP3      H1             52.5573265130       14.7761512649       19.6616193363  TIP3      5559            0.0000000000
     34051      5695  TIP3      H2             53.2061993887       15.2593136560       18.3380251083  TIP3      5559            0.0000000000
     34052      5696  TIP3      OH2            43.2330897601       11.3509068798       18.4891814077  TIP3      5560            0.0000000000
     34053      5696  TIP3      H1             43.4443807538       10.7078228115       19.1893092831  TIP3      5560            0.0000000000
     34054      5696  TIP3      H2             43.9617383894       11.1639223188       17.8562142795  TIP3      5560            0.0000000000
     34055      5697  TIP3      OH2            48.9440710289       13.0973503130       18.5269012599  TIP3      5561            0.0000000000
     34056      5697  TIP3      H1             48.6683553470       12.8506219972       19.4332268169  TIP3      5561            0.0000000000
     34057      5697  TIP3      H2             48.9995372644       12.1938556221       18.1355103854  TIP3      5561            0.0000000000
     34058      5698  TIP3      OH2            44.5517216822        9.8185452289       21.5366764690  TIP3      5562            0.0000000000
     34059      5698  TIP3      H1             44.3515754097        9.7520624971       22.5007107829  TIP3      5562            0.0000000000
     34060      5698  TIP3      H2             45.5016151582        9.6106338285       21.5986286612  TIP3      5562            0.0000000000
     34061      5699  TIP3      OH2            55.1985181015        9.8516125256       18.8509350365  TIP3      5563            0.0000000000
     34062      5699  TIP3      H1             54.7977241597        9.6789311017       17.9834006042  TIP3      5563            0.0000000000
     34063      5699  TIP3      H2             54.8603159922       10.7448533445       19.0917952924  TIP3      5563            0.0000000000
     34064      5700  TIP3      OH2            45.7373721192       18.3029105962       20.5883709313  TIP3      5564            0.0000000000
     34065      5700  TIP3      H1             45.4125390933       19.2272400575       20.7477968747  TIP3      5564            0.0000000000
     34066      5700  TIP3      H2             46.0561837815       18.4086214363       19.6743995827  TIP3      5564            0.0000000000
     34067      5701  TIP3      OH2            53.9255965582        6.5097040114       19.5547694065  TIP3      5565            0.0000000000
     34068      5701  TIP3      H1             54.6815378582        6.8698815202       19.0722833888  TIP3      5565            0.0000000000
     34069      5701  TIP3      H2             53.8865734373        5.5916933258       19.2227843309  TIP3      5565            0.0000000000
     34070      5702  TIP3      OH2            53.9938581375        3.9661738491       18.7282353710  TIP3      5566            0.0000000000
     34071      5702  TIP3      H1             54.5647126725        3.2145366325       18.9441921069  TIP3      5566            0.0000000000
     34072      5702  TIP3      H2             53.3375129529        3.5521852696       18.1367450705  TIP3      5566            0.0000000000
     34073      5703  TIP3      OH2            40.0179122458        0.9427793122       21.6294811064  TIP3      5567            0.0000000000
     34074      5703  TIP3      H1             40.3113623778        1.7598455598       21.1811874790  TIP3      5567            0.0000000000
     34075      5703  TIP3      H2             39.0280640121        1.0499937952       21.5906317038  TIP3      5567            0.0000000000
     34076      5704  TIP3      OH2            41.3963881046        2.4486101545       19.8920465759  TIP3      5568            0.0000000000
     34077      5704  TIP3      H1             41.6981091560        1.6336533092       19.4589219785  TIP3      5568            0.0000000000
     34078      5704  TIP3      H2             41.9927991030        2.4820847778       20.6562079720  TIP3      5568            0.0000000000
     34079      5705  TIP3      OH2            40.5932938551       16.7217742860       18.9243271614  TIP3      5569            0.0000000000
     34080      5705  TIP3      H1             40.8038471740       17.6695330036       18.9432092740  TIP3      5569            0.0000000000
     34081      5705  TIP3      H2             41.4500725482       16.3781941749       18.6108882962  TIP3      5569            0.0000000000
     34082      5706  TIP3      OH2            62.8489417736        3.8116572337       18.9918394313  TIP3      5570            0.0000000000
     34083      5706  TIP3      H1             62.6009587511        3.5375800242       19.9028837534  TIP3      5570            0.0000000000
     34084      5706  TIP3      H2             62.3896427407        4.6778509684       18.8852097266  TIP3      5570            0.0000000000
     34085      5707  TIP3      OH2            59.2913006116        9.2167349826       20.1504304778  TIP3      5571            0.0000000000
     34086      5707  TIP3      H1             59.6081593643        9.3082338905       21.0696531944  TIP3      5571            0.0000000000
     34087      5707  TIP3      H2             58.4658563032        9.7292712803       20.2226931013  TIP3      5571            0.0000000000
     34088      5708  TIP3      OH2            65.2756136044       14.2386997844       17.8641085780  TIP3      5572            0.0000000000
     34089      5708  TIP3      H1             64.5746583605       13.5745522490       17.8093675444  TIP3      5572            0.0000000000
     34090      5708  TIP3      H2             65.5140565371       14.2854442476       18.8054191390  TIP3      5572            0.0000000000
     34091      5709  TIP3      OH2            62.0460755939        2.9371201391       21.4891945449  TIP3      5573            0.0000000000
     34092      5709  TIP3      H1             61.8624203141        3.8997012080       21.6563765624  TIP3      5573            0.0000000000
     34093      5709  TIP3      H2             62.3503986308        2.6830718625       22.3790714468  TIP3      5573            0.0000000000
     34094      5710  TIP3      OH2            59.9583007353       13.0998857936       20.3936830854  TIP3      5574            0.0000000000
     34095      5710  TIP3      H1             59.6197123924       12.4610090062       21.0501045455  TIP3      5574            0.0000000000
     34096      5710  TIP3      H2             60.6837426226       12.6170273781       19.9712419505  TIP3      5574            0.0000000000
     34097      5711  TIP3      OH2            58.7039453752        6.5089379211       19.2811618444  TIP3      5575            0.0000000000
     34098      5711  TIP3      H1             59.1710460566        7.2925751531       19.6422804957  TIP3      5575            0.0000000000
     34099      5711  TIP3      H2             58.4605203811        6.0755495329       20.1192067875  TIP3      5575            0.0000000000
     34100      5712  TIP3      OH2            61.8541606952       11.5089249641       18.9129317016  TIP3      5576            0.0000000000
     34101      5712  TIP3      H1             61.7999708562       10.6340943880       19.3116439981  TIP3      5576            0.0000000000
     34102      5712  TIP3      H2             62.7810323199       11.5549689769       18.6444663388  TIP3      5576            0.0000000000
     34103      5713  TIP3      OH2            59.9578551711        2.2083982066       19.6230924408  TIP3      5577            0.0000000000
     34104      5713  TIP3      H1             60.5280494385        1.6781523522       19.0361744857  TIP3      5577            0.0000000000
     34105      5713  TIP3      H2             60.5692583280        2.4200780552       20.3483686117  TIP3      5577            0.0000000000
     34106      5714  TIP3      OH2            59.4730537032       17.0076890806       19.0539872288  TIP3      5578            0.0000000000
     34107      5714  TIP3      H1             59.6020245959       17.1833371042       19.9965881332  TIP3      5578            0.0000000000
     34108      5714  TIP3      H2             60.2161377558       16.4002845768       18.8704923883  TIP3      5578            0.0000000000
     34109      5715  TIP3      OH2            10.7536188022       26.5979984920       19.7871654989  TIP3      5579            0.0000000000
     34110      5715  TIP3      H1             11.0760207475       26.8831905146       20.6579832411  TIP3      5579            0.0000000000
     34111      5715  TIP3      H2             11.4731202005       25.9573303277       19.5826573299  TIP3      5579            0.0000000000
     34112      5716  TIP3      OH2            14.5364567496       29.3581503150       19.6770307600  TIP3      5580            0.0000000000
     34113      5716  TIP3      H1             14.3504026958       29.0779531353       18.7656289916  TIP3      5580            0.0000000000
     34114      5716  TIP3      H2             15.4822721349       29.1225856466       19.7487814236  TIP3      5580            0.0000000000
     34115      5717  TIP3      OH2            10.3002352957       22.0195851884       20.3474170014  TIP3      5581            0.0000000000
     34116      5717  TIP3      H1              9.7365212508       22.7885463133       20.4877011386  TIP3      5581            0.0000000000
     34117      5717  TIP3      H2              9.6365959817       21.3683467605       20.0661573310  TIP3      5581            0.0000000000
     34118      5718  TIP3      OH2             7.1002348159       22.5086863445       19.3766809749  TIP3      5582            0.0000000000
     34119      5718  TIP3      H1              6.5193086989       21.7287635301       19.4236443022  TIP3      5582            0.0000000000
     34120      5718  TIP3      H2              6.4183052380       23.2085747906       19.4891580233  TIP3      5582            0.0000000000
     34121      5719  TIP3      OH2             1.5400053502       23.1278373719       21.3046977011  TIP3      5583            0.0000000000
     34122      5719  TIP3      H1              1.0788741159       23.9540274133       21.1530922654  TIP3      5583            0.0000000000
     34123      5719  TIP3      H2              0.8678837819       22.5001155919       21.5970404532  TIP3      5583            0.0000000000
     34124      5720  TIP3      OH2            13.1095506304       22.7762023387       20.7774120749  TIP3      5584            0.0000000000
     34125      5720  TIP3      H1             12.1450536759       22.6997648716       20.6834035692  TIP3      5584            0.0000000000
     34126      5720  TIP3      H2             13.2126991157       23.4771909121       21.4431378494  TIP3      5584            0.0000000000
     34127      5721  TIP3      OH2             1.6620003359       27.7753258744       19.6079444324  TIP3      5585            0.0000000000
     34128      5721  TIP3      H1              2.4546452489       27.3380886358       19.9746372778  TIP3      5585            0.0000000000
     34129      5721  TIP3      H2              1.0670845732       27.8303930306       20.3666764024  TIP3      5585            0.0000000000
     34130      5722  TIP3      OH2            14.3217589370       32.2264295878       20.2049300680  TIP3      5586            0.0000000000
     34131      5722  TIP3      H1             14.7529129725       31.6787041959       20.8785386052  TIP3      5586            0.0000000000
     34132      5722  TIP3      H2             13.7924708743       31.5212720875       19.7765438932  TIP3      5586            0.0000000000
     34133      5723  TIP3      OH2             8.5666527874       33.0720902140       18.5745678208  TIP3      5587            0.0000000000
     34134      5723  TIP3      H1              7.8273263968       32.7963233601       18.0113907768  TIP3      5587            0.0000000000
     34135      5723  TIP3      H2              8.1844469640       32.8702968577       19.4678692120  TIP3      5587            0.0000000000
     34136      5724  TIP3      OH2             7.5303573186       32.5442924875       21.0509037263  TIP3      5588            0.0000000000
     34137      5724  TIP3      H1              7.2957026545       31.8906779755       21.7362948373  TIP3      5588            0.0000000000
     34138      5724  TIP3      H2              7.4015174734       33.3336827804       21.5984481438  TIP3      5588            0.0000000000
     34139      5725  TIP3      OH2            10.2154875261       35.2990604598       18.7284500427  TIP3      5589            0.0000000000
     34140      5725  TIP3      H1              9.8033830275       34.4276846295       18.8939157420  TIP3      5589            0.0000000000
     34141      5725  TIP3      H2             11.0131296161       35.0232721654       18.2296492427  TIP3      5589            0.0000000000
     34142      5726  TIP3      OH2            14.6955462982       34.5552912949       18.8022804499  TIP3      5590            0.0000000000
     34143      5726  TIP3      H1             14.8207560976       34.0314811147       19.6202150923  TIP3      5590            0.0000000000
     34144      5726  TIP3      H2             15.6088351377       34.7467831773       18.5227746235  TIP3      5590            0.0000000000
     34145      5727  TIP3      OH2             5.8661409673       30.0679813430       18.8995137748  TIP3      5591            0.0000000000
     34146      5727  TIP3      H1              6.2341362833       30.3406982498       19.7542562265  TIP3      5591            0.0000000000
     34147      5727  TIP3      H2              6.6332735167       30.1158406294       18.2930276521  TIP3      5591            0.0000000000
     34148      5728  TIP3      OH2            10.9247749668       31.6486913655       19.4455760675  TIP3      5592            0.0000000000
     34149      5728  TIP3      H1             10.0728329762       31.7606905810       18.9901385749  TIP3      5592            0.0000000000
     34150      5728  TIP3      H2             11.2869112904       30.8924344934       18.9388028898  TIP3      5592            0.0000000000
     34151      5729  TIP3      OH2             7.2386352141       27.6583428805       21.7919039878  TIP3      5593            0.0000000000
     34152      5729  TIP3      H1              6.5976588811       27.4917955132       22.4985906791  TIP3      5593            0.0000000000
     34153      5729  TIP3      H2              6.8966088615       27.0938853570       21.0784133690  TIP3      5593            0.0000000000
     34154      5730  TIP3      OH2             7.9045884551       26.3644567292       19.4815118438  TIP3      5594            0.0000000000
     34155      5730  TIP3      H1              8.2952548618       26.8793709491       18.7677719244  TIP3      5594            0.0000000000
     34156      5730  TIP3      H2              8.6204819284       26.3966910400       20.1454377986  TIP3      5594            0.0000000000
     34157      5731  TIP3      OH2            17.2470437521       29.1490382813       19.0938300245  TIP3      5595            0.0000000000
     34158      5731  TIP3      H1             17.0753340276       28.7508487471       18.2145028365  TIP3      5595            0.0000000000
     34159      5731  TIP3      H2             17.2246444054       30.1033497508       18.8424381739  TIP3      5595            0.0000000000
     34160      5732  TIP3      OH2            18.3513440218       28.0633394000       21.2659943560  TIP3      5596            0.0000000000
     34161      5732  TIP3      H1             18.0412526956       28.2728917275       20.3553380437  TIP3      5596            0.0000000000
     34162      5732  TIP3      H2             17.5054001595       27.8389140512       21.6940117523  TIP3      5596            0.0000000000
     34163      5733  TIP3      OH2            16.5229714794       25.0545176538       19.2791237586  TIP3      5597            0.0000000000
     34164      5733  TIP3      H1             17.2679520861       25.4276685270       18.8000916739  TIP3      5597            0.0000000000
     34165      5733  TIP3      H2             16.3929543370       24.2016865192       18.8321169004  TIP3      5597            0.0000000000
     34166      5734  TIP3      OH2            16.0479865886       22.3107623857       18.7429470090  TIP3      5598            0.0000000000
     34167      5734  TIP3      H1             16.7668013294       21.8090175035       19.1460123670  TIP3      5598            0.0000000000
     34168      5734  TIP3      H2             15.4733380221       22.4630789315       19.5107531164  TIP3      5598            0.0000000000
     34169      5735  TIP3      OH2             2.3451571143       20.2642848465       22.1357523759  TIP3      5599            0.0000000000
     34170      5735  TIP3      H1              1.6093649556       19.8378365485       21.6341852475  TIP3      5599            0.0000000000
     34171      5735  TIP3      H2              2.3613175418       19.6537325976       22.8932624528  TIP3      5599            0.0000000000
     34172      5736  TIP3      OH2             3.5870258118       36.2441424523       19.2118136279  TIP3      5600            0.0000000000
     34173      5736  TIP3      H1              3.1485047234       35.6775985871       19.8618058504  TIP3      5600            0.0000000000
     34174      5736  TIP3      H2              4.4733045374       35.8271520943       19.1504917708  TIP3      5600            0.0000000000
     34175      5737  TIP3      OH2            37.0506315482       33.0631585582       20.0730151621  TIP3      5601            0.0000000000
     34176      5737  TIP3      H1             37.5872880929       33.7668998124       20.4460533580  TIP3      5601            0.0000000000
     34177      5737  TIP3      H2             37.6500332967       32.2957145614       20.2431213358  TIP3      5601            0.0000000000
     34178      5738  TIP3      OH2            32.4415265772       36.2005806475       20.6657085848  TIP3      5602            0.0000000000
     34179      5738  TIP3      H1             32.9166229549       35.7639401571       19.9171325204  TIP3      5602            0.0000000000
     34180      5738  TIP3      H2             32.6701469340       35.5794640313       21.3647670900  TIP3      5602            0.0000000000
     34181      5739  TIP3      OH2            33.1094496592       29.0765606555       19.6803750819  TIP3      5603            0.0000000000
     34182      5739  TIP3      H1             32.9002063649       29.0535306473       18.7251846446  TIP3      5603            0.0000000000
     34183      5739  TIP3      H2             34.0755389677       28.9556344046       19.6486038812  TIP3      5603            0.0000000000
     34184      5740  TIP3      OH2            28.7680704150       22.3701121850       19.4524079209  TIP3      5604            0.0000000000
     34185      5740  TIP3      H1             28.7725066751       22.3763522492       20.4197377057  TIP3      5604            0.0000000000
     34186      5740  TIP3      H2             28.1040882182       21.6780502906       19.2560018769  TIP3      5604            0.0000000000
     34187      5741  TIP3      OH2            24.9819000931       22.4537006604       19.0404210977  TIP3      5605            0.0000000000
     34188      5741  TIP3      H1             24.4926750743       22.2758206615       19.8626739406  TIP3      5605            0.0000000000
     34189      5741  TIP3      H2             24.6058145290       23.2916811220       18.7385207330  TIP3      5605            0.0000000000
     34190      5742  TIP3      OH2            24.7709703581       25.3637969805       20.1635758487  TIP3      5606            0.0000000000
     34191      5742  TIP3      H1             24.2469140820       25.4888560310       19.3534063193  TIP3      5606            0.0000000000
     34192      5742  TIP3      H2             25.5407071523       25.9181244409       19.9197976880  TIP3      5606            0.0000000000
     34193      5743  TIP3      OH2            29.7571349825       31.5021957343       20.9180594937  TIP3      5607            0.0000000000
     34194      5743  TIP3      H1             29.1617008210       32.0034216433       21.4960785059  TIP3      5607            0.0000000000
     34195      5743  TIP3      H2             29.2489603408       30.6566625712       20.9230454615  TIP3      5607            0.0000000000
     34196      5744  TIP3      OH2            37.0606008080       25.2331865437       22.0316638567  TIP3      5608            0.0000000000
     34197      5744  TIP3      H1             36.7221852475       25.2946717787       21.1091923219  TIP3      5608            0.0000000000
     34198      5744  TIP3      H2             36.7530619092       26.0355410750       22.4562645236  TIP3      5608            0.0000000000
     34199      5745  TIP3      OH2            20.8963701444       27.7190542114       20.4299753850  TIP3      5609            0.0000000000
     34200      5745  TIP3      H1             21.4761163758       27.5884255408       21.2024248373  TIP3      5609            0.0000000000
     34201      5745  TIP3      H2             20.0325028146       27.9147441230       20.8439672250  TIP3      5609            0.0000000000
     34202      5746  TIP3      OH2            33.1885085889       32.2187608048       20.2063887587  TIP3      5610            0.0000000000
     34203      5746  TIP3      H1             33.6112961851       31.8354267325       20.9877714656  TIP3      5610            0.0000000000
     34204      5746  TIP3      H2             32.3034251099       31.8187186337       20.2719891528  TIP3      5610            0.0000000000
     34205      5747  TIP3      OH2            27.1355148766       32.8337958528       18.7690699039  TIP3      5611            0.0000000000
     34206      5747  TIP3      H1             26.9199904456       32.4498691239       17.8991971146  TIP3      5611            0.0000000000
     34207      5747  TIP3      H2             26.7852945314       32.1479908730       19.3598395077  TIP3      5611            0.0000000000
     34208      5748  TIP3      OH2            24.4913267378       21.3698056595       21.6683027112  TIP3      5612            0.0000000000
     34209      5748  TIP3      H1             24.6284669929       22.1963650426       22.1689929736  TIP3      5612            0.0000000000
     34210      5748  TIP3      H2             25.3947270120       21.0393208213       21.5657575616  TIP3      5612            0.0000000000
     34211      5749  TIP3      OH2            22.6240544264       32.1929546286       20.4453632571  TIP3      5613            0.0000000000
     34212      5749  TIP3      H1             23.0189635990       32.3973521324       21.3052762034  TIP3      5613            0.0000000000
     34213      5749  TIP3      H2             23.1507863194       31.4150184095       20.1700407110  TIP3      5613            0.0000000000
     34214      5750  TIP3      OH2            20.7825817175       24.9150085206       19.6415207634  TIP3      5614            0.0000000000
     34215      5750  TIP3      H1             21.4597096648       25.4396816585       20.0978816804  TIP3      5614            0.0000000000
     34216      5750  TIP3      H2             20.5948646923       25.5016211583       18.8914726431  TIP3      5614            0.0000000000
     34217      5751  TIP3      OH2            29.2339460163       35.1611972185       18.8025901600  TIP3      5615            0.0000000000
     34218      5751  TIP3      H1             28.7805572168       34.3008283896       18.9646119486  TIP3      5615            0.0000000000
     34219      5751  TIP3      H2             29.9856863622       34.8787515734       18.2396037863  TIP3      5615            0.0000000000
     34220      5752  TIP3      OH2            33.7311944125       34.4691538735       19.0009896018  TIP3      5616            0.0000000000
     34221      5752  TIP3      H1             33.7095228906       33.5851948793       19.4362948456  TIP3      5616            0.0000000000
     34222      5752  TIP3      H2             34.4918609990       34.3907225417       18.3859392022  TIP3      5616            0.0000000000
     34223      5753  TIP3      OH2            24.4154150028       30.3343992209       18.8477377189  TIP3      5617            0.0000000000
     34224      5753  TIP3      H1             24.6197703530       30.0621964136       19.7791524799  TIP3      5617            0.0000000000
     34225      5753  TIP3      H2             25.1263851344       29.8909995201       18.3601859266  TIP3      5617            0.0000000000
     34226      5754  TIP3      OH2            30.2245890473       31.7125253650       18.3145213509  TIP3      5618            0.0000000000
     34227      5754  TIP3      H1             29.9399636926       31.7718731445       19.2523054615  TIP3      5618            0.0000000000
     34228      5754  TIP3      H2             30.1183598039       30.7494456986       18.1977654131  TIP3      5618            0.0000000000
     34229      5755  TIP3      OH2            26.6393172808       26.8710526918       18.9765665563  TIP3      5619            0.0000000000
     34230      5755  TIP3      H1             26.5937204607       27.0350663399       18.0104414561  TIP3      5619            0.0000000000
     34231      5755  TIP3      H2             27.0152056158       27.6947516383       19.3066705515  TIP3      5619            0.0000000000
     34232      5756  TIP3      OH2            35.9452783956       28.8595338030       18.7915836256  TIP3      5620            0.0000000000
     34233      5756  TIP3      H1             35.8823923154       28.5782080203       17.8680850730  TIP3      5620            0.0000000000
     34234      5756  TIP3      H2             36.1336507748       29.8141156442       18.6909652489  TIP3      5620            0.0000000000
     34235      5757  TIP3      OH2            26.5714466272       36.5481490334       21.5958272169  TIP3      5621            0.0000000000
     34236      5757  TIP3      H1             27.0927223213       37.3589052456       21.4416748899  TIP3      5621            0.0000000000
     34237      5757  TIP3      H2             25.8336327264       36.6874875646       20.9888993719  TIP3      5621            0.0000000000
     34238      5758  TIP3      OH2            36.1080083823       25.1524323059       19.4299893557  TIP3      5622            0.0000000000
     34239      5758  TIP3      H1             36.1231020515       25.7010214309       18.6366794966  TIP3      5622            0.0000000000
     34240      5758  TIP3      H2             35.5406146512       24.4021536427       19.1342544790  TIP3      5622            0.0000000000
     34241      5759  TIP3      OH2            34.8252839990       22.6941915957       19.0540096195  TIP3      5623            0.0000000000
     34242      5759  TIP3      H1             35.2599308839       22.1110203569       19.7059633938  TIP3      5623            0.0000000000
     34243      5759  TIP3      H2             33.9768671341       22.2452412754       18.8526539227  TIP3      5623            0.0000000000
     34244      5760  TIP3      OH2            36.5775443234       20.9943500653       20.5607482678  TIP3      5624            0.0000000000
     34245      5760  TIP3      H1             37.3010423360       20.5333249126       20.0911652821  TIP3      5624            0.0000000000
     34246      5760  TIP3      H2             37.1151202302       21.6651457341       21.0378969004  TIP3      5624            0.0000000000
     34247      5761  TIP3      OH2            29.8000939201       37.0105141090       21.1028354214  TIP3      5625            0.0000000000
     34248      5761  TIP3      H1             30.6841197193       36.6254891575       20.9761108287  TIP3      5625            0.0000000000
     34249      5761  TIP3      H2             29.2978847313       36.5074861809       20.4409030624  TIP3      5625            0.0000000000
     34250      5762  TIP3      OH2            21.6264949884       35.5183552577       18.9640539879  TIP3      5626            0.0000000000
     34251      5762  TIP3      H1             21.4615749945       35.5086786187       19.9271505577  TIP3      5626            0.0000000000
     34252      5762  TIP3      H2             22.5268128193       35.1474392322       18.9055878880  TIP3      5626            0.0000000000
     34253      5763  TIP3      OH2            55.9304094991       33.2183621813       19.8539966199  TIP3      5627            0.0000000000
     34254      5763  TIP3      H1             55.9172718225       34.1450409333       20.1297064003  TIP3      5627            0.0000000000
     34255      5763  TIP3      H2             56.7261230074       32.8846169579       20.2847818236  TIP3      5627            0.0000000000
     34256      5764  TIP3      OH2            52.3699901006       28.4111510793       19.5874440935  TIP3      5628            0.0000000000
     34257      5764  TIP3      H1             52.1838665975       28.4415701849       18.6247163589  TIP3      5628            0.0000000000
     34258      5764  TIP3      H2             53.3155770767       28.6506967852       19.5501134129  TIP3      5628            0.0000000000
     34259      5765  TIP3      OH2            47.5215208819       22.2217256232       20.2157094049  TIP3      5629            0.0000000000
     34260      5765  TIP3      H1             47.0006729065       22.5454991297       20.9634147553  TIP3      5629            0.0000000000
     34261      5765  TIP3      H2             46.9412905708       21.5576791366       19.8030641056  TIP3      5629            0.0000000000
     34262      5766  TIP3      OH2            44.1912331978       22.9634409012       19.5933270480  TIP3      5630            0.0000000000
     34263      5766  TIP3      H1             43.8926338460       22.4984973159       20.4159429222  TIP3      5630            0.0000000000
     34264      5766  TIP3      H2             43.3263381132       23.0794984343       19.1623697576  TIP3      5630            0.0000000000
     34265      5767  TIP3      OH2            38.4661504458       22.7706154768       21.3390735684  TIP3      5631            0.0000000000
     34266      5767  TIP3      H1             38.9990821102       22.2068289910       21.9292021180  TIP3      5631            0.0000000000
     34267      5767  TIP3      H2             38.0527838886       23.3373385408       22.0188017529  TIP3      5631            0.0000000000
     34268      5768  TIP3      OH2            42.7820664208       25.9335243340       20.3575482886  TIP3      5632            0.0000000000
     34269      5768  TIP3      H1             42.0701262913       25.7286098119       19.7212612313  TIP3      5632            0.0000000000
     34270      5768  TIP3      H2             43.4862946672       25.3619949985       20.0160510912  TIP3      5632            0.0000000000
     34271      5769  TIP3      OH2            50.6025880967       22.1373112078       21.1624083306  TIP3      5633            0.0000000000
     34272      5769  TIP3      H1             49.7987484845       22.1859271868       21.7148169585  TIP3      5633            0.0000000000
     34273      5769  TIP3      H2             51.0116175757       22.9882854865       21.4184678083  TIP3      5633            0.0000000000
     34274      5770  TIP3      OH2            51.4021355257       24.6539999378       22.0259428482  TIP3      5634            0.0000000000
     34275      5770  TIP3      H1             50.7138804183       24.5766853643       22.7202761492  TIP3      5634            0.0000000000
     34276      5770  TIP3      H2             51.2756114915       25.5448740777       21.6970103770  TIP3      5634            0.0000000000
     34277      5771  TIP3      OH2            49.2539241663       30.8957154625       22.0147949541  TIP3      5635            0.0000000000
     34278      5771  TIP3      H1             49.5188281529       31.8132597162       22.1577573265  TIP3      5635            0.0000000000
     34279      5771  TIP3      H2             49.9879445748       30.5049890471       22.5507139365  TIP3      5635            0.0000000000
     34280      5772  TIP3      OH2            51.9668900540       31.5825729057       20.5927976738  TIP3      5636            0.0000000000
     34281      5772  TIP3      H1             51.8335351560       31.2154451377       21.4975355274  TIP3      5636            0.0000000000
     34282      5772  TIP3      H2             51.2885216523       31.1315427470       20.0824019434  TIP3      5636            0.0000000000
     34283      5773  TIP3      OH2            55.6536112485       36.2118860294       19.7469678403  TIP3      5637            0.0000000000
     34284      5773  TIP3      H1             56.6047845799       36.3732088193       19.7594631873  TIP3      5637            0.0000000000
     34285      5773  TIP3      H2             55.3408040359       37.1205255420       19.8219176499  TIP3      5637            0.0000000000
     34286      5774  TIP3      OH2            39.7233268940       25.2394886919       19.5867662192  TIP3      5638            0.0000000000
     34287      5774  TIP3      H1             39.4888535450       25.2027066881       20.5216254777  TIP3      5638            0.0000000000
     34288      5774  TIP3      H2             39.2334852007       24.4613498521       19.2826344600  TIP3      5638            0.0000000000
     34289      5775  TIP3      OH2            47.9482587448       35.1012323109       18.4126049266  TIP3      5639            0.0000000000
     34290      5775  TIP3      H1             47.6527056397       34.4221071515       19.0291489059  TIP3      5639            0.0000000000
     34291      5775  TIP3      H2             48.8059668326       34.7416925812       18.0753434163  TIP3      5639            0.0000000000
     34292      5776  TIP3      OH2            52.4397619223       34.3298789777       18.6298447154  TIP3      5640            0.0000000000
     34293      5776  TIP3      H1             52.3477310632       34.3725898480       19.5954166589  TIP3      5640            0.0000000000
     34294      5776  TIP3      H2             53.2267946077       34.8727948380       18.4471666946  TIP3      5640            0.0000000000
     34295      5777  TIP3      OH2            49.2856227827       31.5274865193       18.3191948295  TIP3      5641            0.0000000000
     34296      5777  TIP3      H1             49.0265958839       31.5679004009       19.2457704011  TIP3      5641            0.0000000000
     34297      5777  TIP3      H2             49.0551458255       30.5819752762       18.1426835382  TIP3      5641            0.0000000000
     34298      5778  TIP3      OH2            55.0903397883       28.7403112733       19.0212687521  TIP3      5642            0.0000000000
     34299      5778  TIP3      H1             54.9393601395       28.5170006986       18.0792299888  TIP3      5642            0.0000000000
     34300      5778  TIP3      H2             55.3208922697       29.6891818810       18.9093975788  TIP3      5642            0.0000000000
     34301      5779  TIP3      OH2            45.4014814932       37.5129707176       20.1260481823  TIP3      5643            0.0000000000
     34302      5779  TIP3      H1             46.2952606392       37.1139431558       20.2487713829  TIP3      5643            0.0000000000
     34303      5779  TIP3      H2             45.6819175637       38.4419781975       20.1054100556  TIP3      5643            0.0000000000
     34304      5780  TIP3      OH2            39.1167594397       31.3989888369       19.8557893119  TIP3      5644            0.0000000000
     34305      5780  TIP3      H1             39.8883387918       31.9757454551       19.8504873592  TIP3      5644            0.0000000000
     34306      5780  TIP3      H2             39.1955389324       30.8542941330       19.0287936560  TIP3      5644            0.0000000000
     34307      5781  TIP3      OH2            56.0930837275       27.3061151238       21.3078755948  TIP3      5645            0.0000000000
     34308      5781  TIP3      H1             55.7743194953       27.7163746834       20.4783538345  TIP3      5645            0.0000000000
     34309      5781  TIP3      H2             55.7789705609       27.9074224865       21.9991312517  TIP3      5645            0.0000000000
     34310      5782  TIP3      OH2            53.4043009017       22.3342331076       19.0343975725  TIP3      5646            0.0000000000
     34311      5782  TIP3      H1             54.1183316963       21.9558206195       18.5097217263  TIP3      5646            0.0000000000
     34312      5782  TIP3      H2             52.6185311357       22.1042184745       18.5178887957  TIP3      5646            0.0000000000
     34313      5783  TIP3      OH2            47.9828436397       36.8859203599       20.3167360740  TIP3      5647            0.0000000000
     34314      5783  TIP3      H1             48.6896098656       37.5554624575       20.3293886367  TIP3      5647            0.0000000000
     34315      5783  TIP3      H2             48.1723693468       36.3762226049       19.5028391610  TIP3      5647            0.0000000000
     34316      5784  TIP3      OH2            41.0457765920       36.4424204872       19.8318706153  TIP3      5648            0.0000000000
     34317      5784  TIP3      H1             41.5097814289       36.8259600049       20.5859709946  TIP3      5648            0.0000000000
     34318      5784  TIP3      H2             41.7387343155       35.8792835660       19.4390825988  TIP3      5648            0.0000000000
     34319      5785  TIP3      OH2            59.0790289879       28.1427511661       20.4310997965  TIP3      5649            0.0000000000
     34320      5785  TIP3      H1             59.7748775783       28.4226238032       21.0451562535  TIP3      5649            0.0000000000
     34321      5785  TIP3      H2             58.3419054396       28.7144617801       20.7660325803  TIP3      5649            0.0000000000
     34322      5786  TIP3      OH2            65.0619285980       32.4064708008       19.5423116452  TIP3      5650            0.0000000000
     34323      5786  TIP3      H1             64.8358851204       31.7537015957       18.8599601832  TIP3      5650            0.0000000000
     34324      5786  TIP3      H2             64.2684391771       32.4106232303       20.1113333301  TIP3      5650            0.0000000000
     34325      5787  TIP3      OH2            63.3189812164       32.1643156915       21.8165188182  TIP3      5651            0.0000000000
     34326      5787  TIP3      H1             62.7281007009       31.4098991721       22.0691670348  TIP3      5651            0.0000000000
     34327      5787  TIP3      H2             63.4054205859       32.5882042547       22.6764745064  TIP3      5651            0.0000000000
     34328      5788  TIP3      OH2            60.0676033024       32.3051706245       20.8417967722  TIP3      5652            0.0000000000
     34329      5788  TIP3      H1             59.6718153216       32.0196756124       21.7012027601  TIP3      5652            0.0000000000
     34330      5788  TIP3      H2             60.7400474106       31.6147579996       20.7660189627  TIP3      5652            0.0000000000
     34331      5789  TIP3      OH2            58.6228610195       25.3298737937       20.0295553862  TIP3      5653            0.0000000000
     34332      5789  TIP3      H1             59.1021903123       26.1017317135       20.3630295294  TIP3      5653            0.0000000000
     34333      5789  TIP3      H2             57.9864222762       25.7624593477       19.4523201742  TIP3      5653            0.0000000000
     34334      5790  TIP3      OH2            62.3106160484       30.2575442851       18.9683629532  TIP3      5654            0.0000000000
     34335      5790  TIP3      H1             62.5896421134       29.6082786233       19.6245902052  TIP3      5654            0.0000000000
     34336      5790  TIP3      H2             63.0257590569       30.2086010583       18.3096918391  TIP3      5654            0.0000000000
     34337      5791  TIP3      OH2            64.4894100150       26.6572165809       19.4379897347  TIP3      5655            0.0000000000
     34338      5791  TIP3      H1             64.2046822351       26.9696963167       18.5533850244  TIP3      5655            0.0000000000
     34339      5791  TIP3      H2             64.8828039660       25.7927529054       19.2029583370  TIP3      5655            0.0000000000
     34340      5792  TIP3      OH2            58.2096750277       19.6493150103       21.2730598088  TIP3      5656            0.0000000000
     34341      5792  TIP3      H1             59.1085934670       19.6333289184       21.6156317727  TIP3      5656            0.0000000000
     34342      5792  TIP3      H2             57.7548554820       20.2003873735       21.9242049867  TIP3      5656            0.0000000000
     34343      5793  TIP3      OH2            61.1594200750       21.4209144109       20.0671615285  TIP3      5657            0.0000000000
     34344      5793  TIP3      H1             61.1685353177       20.7200090327       19.3937898006  TIP3      5657            0.0000000000
     34345      5793  TIP3      H2             61.9340009197       21.1167690016       20.5637758092  TIP3      5657            0.0000000000
     34346      5794  TIP3      OH2            17.7566644752       52.7164085086       20.0258957735  TIP3      5658            0.0000000000
     34347      5794  TIP3      H1             18.2318549398       53.4870350253       20.4104249190  TIP3      5658            0.0000000000
     34348      5794  TIP3      H2             18.5219431724       52.1534482724       19.7716246357  TIP3      5658            0.0000000000
     34349      5795  TIP3      OH2            13.3520963089       54.8474653572       20.2537128497  TIP3      5659            0.0000000000
     34350      5795  TIP3      H1             13.0367048056       54.4849001864       19.4179473200  TIP3      5659            0.0000000000
     34351      5795  TIP3      H2             12.4943852202       54.9752906562       20.7239351625  TIP3      5659            0.0000000000
     34352      5796  TIP3      OH2            14.5134052705       47.2895799723       19.8509322992  TIP3      5660            0.0000000000
     34353      5796  TIP3      H1             14.3078483690       47.2781810027       18.8892845531  TIP3      5660            0.0000000000
     34354      5796  TIP3      H2             15.4622270673       47.5075979384       19.8000636942  TIP3      5660            0.0000000000
     34355      5797  TIP3      OH2            10.3847374830       40.3895860834       19.9193005689  TIP3      5661            0.0000000000
     34356      5797  TIP3      H1              9.8994458710       41.1471451804       20.2745044191  TIP3      5661            0.0000000000
     34357      5797  TIP3      H2              9.6063880230       39.8682139868       19.5870922130  TIP3      5661            0.0000000000
     34358      5798  TIP3      OH2             6.8442510415       41.5765682305       19.6849679929  TIP3      5662            0.0000000000
     34359      5798  TIP3      H1              6.1721137603       41.2630684944       20.3399653955  TIP3      5662            0.0000000000
     34360      5798  TIP3      H2              6.2573876877       42.0778624265       19.0719553849  TIP3      5662            0.0000000000
     34361      5799  TIP3      OH2             4.9798313798       44.1573717614       20.6863760457  TIP3      5663            0.0000000000
     34362      5799  TIP3      H1              4.8659236066       43.1930193851       20.7202545196  TIP3      5663            0.0000000000
     34363      5799  TIP3      H2              5.4213698491       44.3309619436       21.5397564802  TIP3      5663            0.0000000000
     34364      5800  TIP3      OH2            10.8752426631       50.2207540234       20.8794042030  TIP3      5664            0.0000000000
     34365      5800  TIP3      H1             11.8367419129       50.0937901740       20.8686994245  TIP3      5664            0.0000000000
     34366      5800  TIP3      H2             10.6165827420       49.5170724389       21.4870432356  TIP3      5664            0.0000000000
     34367      5801  TIP3      OH2            18.9614361964       54.9315521914       20.7686640587  TIP3      5665            0.0000000000
     34368      5801  TIP3      H1             18.9137723275       55.2694086734       19.8652826627  TIP3      5665            0.0000000000
     34369      5801  TIP3      H2             18.1394921424       55.3227718081       21.1424664610  TIP3      5665            0.0000000000
     34370      5802  TIP3      OH2             8.2606765922       51.9503885865       18.9275488055  TIP3      5666            0.0000000000
     34371      5802  TIP3      H1              7.7741000149       51.9490307093       18.0915229948  TIP3      5666            0.0000000000
     34372      5802  TIP3      H2              8.0300811388       51.0816316712       19.2750307209  TIP3      5666            0.0000000000
     34373      5803  TIP3      OH2             3.9311784001       50.2633464571       20.1056449894  TIP3      5667            0.0000000000
     34374      5803  TIP3      H1              4.1210538706       51.1989297345       20.2280828472  TIP3      5667            0.0000000000
     34375      5803  TIP3      H2              4.7767493256       49.9108805849       19.7437355552  TIP3      5667            0.0000000000
     34376      5804  TIP3      OH2             2.2492502352       44.4290258889       19.2346356859  TIP3      5668            0.0000000000
     34377      5804  TIP3      H1              3.1211204375       44.4080035863       19.6868623134  TIP3      5668            0.0000000000
     34378      5804  TIP3      H2              2.0627330835       43.4743658059       19.1307430416  TIP3      5668            0.0000000000
     34379      5805  TIP3      OH2            10.3551094753       53.8360914948       19.0000390942  TIP3      5669            0.0000000000
     34380      5805  TIP3      H1              9.7342921521       53.0803451938       19.0875257782  TIP3      5669            0.0000000000
     34381      5805  TIP3      H2             11.1034032134       53.4144146882       18.5333496685  TIP3      5669            0.0000000000
     34382      5806  TIP3      OH2             5.9994625425       49.1105893677       18.9698940584  TIP3      5670            0.0000000000
     34383      5806  TIP3      H1              6.2000741480       48.3087510604       19.4892280613  TIP3      5670            0.0000000000
     34384      5806  TIP3      H2              6.6295339913       49.0132810493       18.2197095669  TIP3      5670            0.0000000000
     34385      5807  TIP3      OH2            10.9626818681       50.6027564912       18.0960756691  TIP3      5671            0.0000000000
     34386      5807  TIP3      H1             10.6124038157       50.6154950845       19.0064284137  TIP3      5671            0.0000000000
     34387      5807  TIP3      H2             11.1506265713       49.6321709258       18.0324093069  TIP3      5671            0.0000000000
     34388      5808  TIP3      OH2             6.1913956211       46.7612664900       21.2158985082  TIP3      5672            0.0000000000
     34389      5808  TIP3      H1              6.0463359299       46.2356938299       22.0357052802  TIP3      5672            0.0000000000
     34390      5808  TIP3      H2              6.5758720915       46.0749089738       20.6369128660  TIP3      5672            0.0000000000
     34391      5809  TIP3      OH2             7.6526403627       45.6893761115       19.0742233115  TIP3      5673            0.0000000000
     34392      5809  TIP3      H1              7.3149099625       44.9062293580       18.6087636167  TIP3      5673            0.0000000000
     34393      5809  TIP3      H2              7.6308940443       46.3409339938       18.3452657610  TIP3      5673            0.0000000000
     34394      5810  TIP3      OH2            17.0943281690       47.6807983660       18.8311686916  TIP3      5674            0.0000000000
     34395      5810  TIP3      H1             17.1360519535       47.3955581181       17.8988124698  TIP3      5674            0.0000000000
     34396      5810  TIP3      H2             17.3347988678       48.6275451952       18.7484202875  TIP3      5674            0.0000000000
     34397      5811  TIP3      OH2            18.5569499215       46.4454862351       21.2902760638  TIP3      5675            0.0000000000
     34398      5811  TIP3      H1             18.2388596997       46.9405531773       20.5217964417  TIP3      5675            0.0000000000
     34399      5811  TIP3      H2             18.3839720554       47.0261342018       22.0493421754  TIP3      5675            0.0000000000
     34400      5812  TIP3      OH2            10.9850931919       54.9990100765       21.5288936971  TIP3      5676            0.0000000000
     34401      5812  TIP3      H1             10.4255221328       55.5254508558       22.1096825499  TIP3      5676            0.0000000000
     34402      5812  TIP3      H2             10.5099345282       55.1018729729       20.6872479170  TIP3      5676            0.0000000000
     34403      5813  TIP3      OH2             3.3371262876       54.8807102607       19.4037095479  TIP3      5677            0.0000000000
     34404      5813  TIP3      H1              2.9928302513       55.3158481019       20.2020759060  TIP3      5677            0.0000000000
     34405      5813  TIP3      H2              4.2914856974       54.8533717644       19.5844554229  TIP3      5677            0.0000000000
     34406      5814  TIP3      OH2            29.5351524922       45.7383445724       20.1672340102  TIP3      5678            0.0000000000
     34407      5814  TIP3      H1             30.1664160545       46.1088077242       20.8020697005  TIP3      5678            0.0000000000
     34408      5814  TIP3      H2             29.9294559886       44.8825926040       19.9570992751  TIP3      5678            0.0000000000
     34409      5815  TIP3      OH2            32.2827398013       46.4624029251       21.6830887957  TIP3      5679            0.0000000000
     34410      5815  TIP3      H1             32.9422518764       45.8014174729       21.8901203211  TIP3      5679            0.0000000000
     34411      5815  TIP3      H2             32.6751024914       46.8385243433       20.8610348763  TIP3      5679            0.0000000000
     34412      5816  TIP3      OH2            37.0534808798       52.6953643816       19.3144210452  TIP3      5680            0.0000000000
     34413      5816  TIP3      H1             37.5128366452       53.4206869785       18.8781553106  TIP3      5680            0.0000000000
     34414      5816  TIP3      H2             37.8017631189       52.2078692475       19.7398217718  TIP3      5680            0.0000000000
     34415      5817  TIP3      OH2            32.2565652187       54.8433441687       20.4825931233  TIP3      5681            0.0000000000
     34416      5817  TIP3      H1             32.1200707919       54.1331973817       19.8381365233  TIP3      5681            0.0000000000
     34417      5817  TIP3      H2             31.4385076577       54.8976772356       20.9862641646  TIP3      5681            0.0000000000
     34418      5818  TIP3      OH2            33.9134381839       47.5571096277       19.7228771428  TIP3      5682            0.0000000000
     34419      5818  TIP3      H1             33.6524018774       47.2294605537       18.8346765716  TIP3      5682            0.0000000000
     34420      5818  TIP3      H2             34.8595396357       47.7584872974       19.5743022939  TIP3      5682            0.0000000000
     34421      5819  TIP3      OH2            29.1650157475       41.0907596130       19.7153437675  TIP3      5683            0.0000000000
     34422      5819  TIP3      H1             28.9583466048       41.3463301904       20.6377667979  TIP3      5683            0.0000000000
     34423      5819  TIP3      H2             28.7820170948       40.2002344281       19.7252840405  TIP3      5683            0.0000000000
     34424      5820  TIP3      OH2            25.5397218907       41.3524464789       18.5960509905  TIP3      5684            0.0000000000
     34425      5820  TIP3      H1             25.3334523287       40.9409198300       19.4613682607  TIP3      5684            0.0000000000
     34426      5820  TIP3      H2             24.8851747671       42.0844269853       18.5950544057  TIP3      5684            0.0000000000
     34427      5821  TIP3      OH2            20.3335816902       41.8575041386       21.6164613197  TIP3      5685            0.0000000000
     34428      5821  TIP3      H1             21.1772647724       41.5484402690       21.2411278777  TIP3      5685            0.0000000000
     34429      5821  TIP3      H2             20.4330164818       41.6537530851       22.5645142554  TIP3      5685            0.0000000000
     34430      5822  TIP3      OH2            33.4268431680       50.7858812746       20.0995041442  TIP3      5686            0.0000000000
     34431      5822  TIP3      H1             33.5804543462       50.6931213219       21.0564670804  TIP3      5686            0.0000000000
     34432      5822  TIP3      H2             32.9794227765       49.9514574662       19.8642053923  TIP3      5686            0.0000000000
     34433      5823  TIP3      OH2            25.0977520611       40.7258227292       21.3397850073  TIP3      5687            0.0000000000
     34434      5823  TIP3      H1             25.0654066963       41.4565338993       21.9928774711  TIP3      5687            0.0000000000
     34435      5823  TIP3      H2             25.7437590939       40.1445242231       21.7737433705  TIP3      5687            0.0000000000
     34436      5824  TIP3      OH2            21.2693898219       43.9929005061       19.9186149214  TIP3      5688            0.0000000000
     34437      5824  TIP3      H1             22.0256052826       44.1979945980       20.4982403995  TIP3      5688            0.0000000000
     34438      5824  TIP3      H2             20.7503983569       43.3794877814       20.4762549903  TIP3      5688            0.0000000000
     34439      5825  TIP3      OH2            29.4143860883       53.7914750472       18.9427374296  TIP3      5689            0.0000000000
     34440      5825  TIP3      H1             28.8606130008       53.0227361137       18.7489990488  TIP3      5689            0.0000000000
     34441      5825  TIP3      H2             30.1423692767       53.6574775002       18.2894659605  TIP3      5689            0.0000000000
     34442      5826  TIP3      OH2            33.6206891472       53.1258144155       18.6219954975  TIP3      5690            0.0000000000
     34443      5826  TIP3      H1             33.7686940325       52.3383286616       19.1840442926  TIP3      5690            0.0000000000
     34444      5826  TIP3      H2             34.4740003375       53.1941989808       18.1381273074  TIP3      5690            0.0000000000
     34445      5827  TIP3      OH2            24.6527533217       48.7711681087       18.6051478346  TIP3      5691            0.0000000000
     34446      5827  TIP3      H1             24.7073195840       47.8270207189       18.8108126162  TIP3      5691            0.0000000000
     34447      5827  TIP3      H2             25.5138458881       48.8667520622       18.1477039644  TIP3      5691            0.0000000000
     34448      5828  TIP3      OH2            30.3593070705       50.6236615624       18.3319813493  TIP3      5692            0.0000000000
     34449      5828  TIP3      H1             29.9773059145       50.4045478882       19.1808437214  TIP3      5692            0.0000000000
     34450      5828  TIP3      H2             30.4745389491       49.6882384478       18.0322058589  TIP3      5692            0.0000000000
     34451      5829  TIP3      OH2            26.5526288051       46.3063592973       19.6744068866  TIP3      5693            0.0000000000
     34452      5829  TIP3      H1             26.4240549282       46.1433811635       18.7253985268  TIP3      5693            0.0000000000
     34453      5829  TIP3      H2             27.3038555263       45.7224731043       19.8794183396  TIP3      5693            0.0000000000
     34454      5830  TIP3      OH2            36.4989113066       47.8908336757       18.8012581347  TIP3      5694            0.0000000000
     34455      5830  TIP3      H1             36.1399332230       47.5742748285       17.9496385784  TIP3      5694            0.0000000000
     34456      5830  TIP3      H2             36.3700769828       48.8679272012       18.7338972290  TIP3      5694            0.0000000000
     34457      5831  TIP3      OH2            26.8314503267       55.8189107038       20.0451685071  TIP3      5695            0.0000000000
     34458      5831  TIP3      H1             27.6495806675       55.7730502492       20.5644676064  TIP3      5695            0.0000000000
     34459      5831  TIP3      H2             26.6508838041       56.7725463821       20.0162258327  TIP3      5695            0.0000000000
     34460      5832  TIP3      OH2            19.8924473937       51.1290712774       19.4325861341  TIP3      5696            0.0000000000
     34461      5832  TIP3      H1             20.2098275267       50.7927439927       20.2757206693  TIP3      5696            0.0000000000
     34462      5832  TIP3      H2             19.8775815196       50.2975388262       18.9101148149  TIP3      5696            0.0000000000
     34463      5833  TIP3      OH2            35.3957883314       44.5942607427       19.5502536342  TIP3      5697            0.0000000000
     34464      5833  TIP3      H1             35.9570877215       44.7675937274       18.7763771261  TIP3      5697            0.0000000000
     34465      5833  TIP3      H2             35.4587679027       43.6260106799       19.6572195360  TIP3      5697            0.0000000000
     34466      5834  TIP3      OH2            35.1349460351       41.6859345767       19.5410247583  TIP3      5698            0.0000000000
     34467      5834  TIP3      H1             35.7203286657       40.9456723838       19.7634244363  TIP3      5698            0.0000000000
     34468      5834  TIP3      H2             34.5026711863       41.2683832580       18.9310513126  TIP3      5698            0.0000000000
     34469      5835  TIP3      OH2            20.8725769458       38.2661865219       21.0222405915  TIP3      5699            0.0000000000
     34470      5835  TIP3      H1             20.3208725734       38.8405354140       21.5640315336  TIP3      5699            0.0000000000
     34471      5835  TIP3      H2             20.4402682573       37.4135254472       21.2744874019  TIP3      5699            0.0000000000
     34472      5836  TIP3      OH2            22.6608216236       40.6731934985       20.1558857356  TIP3      5700            0.0000000000
     34473      5836  TIP3      H1             22.4552445388       39.7194741749       20.1310366527  TIP3      5700            0.0000000000
     34474      5836  TIP3      H2             23.5769406095       40.6581656091       20.5201995593  TIP3      5700            0.0000000000
     34475      5837  TIP3      OH2            29.4585276260       55.3143327429       21.3407944834  TIP3      5701            0.0000000000
     34476      5837  TIP3      H1             30.0567270667       56.0709513135       21.4682174788  TIP3      5701            0.0000000000
     34477      5837  TIP3      H2             29.5743811782       55.0499520721       20.4066197050  TIP3      5701            0.0000000000
     34478      5838  TIP3      OH2            21.9109745457       54.4105006536       19.0480462788  TIP3      5702            0.0000000000
     34479      5838  TIP3      H1             22.2734001974       55.1579453191       19.5473992018  TIP3      5702            0.0000000000
     34480      5838  TIP3      H2             22.7160161265       54.0500958776       18.6131848818  TIP3      5702            0.0000000000
     34481      5839  TIP3      OH2            48.1775748504       45.2725648306       19.7360028373  TIP3      5703            0.0000000000
     34482      5839  TIP3      H1             48.0832108845       45.4609559142       20.6760772108  TIP3      5703            0.0000000000
     34483      5839  TIP3      H2             48.1733476414       44.2863657997       19.7224833855  TIP3      5703            0.0000000000
     34484      5840  TIP3      OH2            55.8117613637       52.5906361008       19.5677332937  TIP3      5704            0.0000000000
     34485      5840  TIP3      H1             55.8966352063       53.5458594395       19.7278713157  TIP3      5704            0.0000000000
     34486      5840  TIP3      H2             56.2899872675       52.2815670855       20.3529646642  TIP3      5704            0.0000000000
     34487      5841  TIP3      OH2            46.8976758802       40.6056750011       20.5127864856  TIP3      5705            0.0000000000
     34488      5841  TIP3      H1             47.6871105778       41.0892661917       20.1875954529  TIP3      5705            0.0000000000
     34489      5841  TIP3      H2             46.5550365673       40.2895823559       19.6515789925  TIP3      5705            0.0000000000
     34490      5842  TIP3      OH2            43.6359509945       41.3820201735       19.3041676067  TIP3      5706            0.0000000000
     34491      5842  TIP3      H1             43.5921477036       41.5941264092       20.2561411908  TIP3      5706            0.0000000000
     34492      5842  TIP3      H2             43.3495028048       42.2292832084       18.8977332952  TIP3      5706            0.0000000000
     34493      5843  TIP3      OH2            48.3551315151       50.7813974873       20.7321243140  TIP3      5707            0.0000000000
     34494      5843  TIP3      H1             47.6638282772       51.4481136339       20.8724976265  TIP3      5707            0.0000000000
     34495      5843  TIP3      H2             48.0213962720       50.0188811137       21.2276998898  TIP3      5707            0.0000000000
     34496      5844  TIP3      OH2            56.3493684972       43.8759377585       21.6735431325  TIP3      5708            0.0000000000
     34497      5844  TIP3      H1             55.8597065691       43.1141656298       21.3058563835  TIP3      5708            0.0000000000
     34498      5844  TIP3      H2             55.9973715866       44.5624074486       21.0701447096  TIP3      5708            0.0000000000
     34499      5845  TIP3      OH2            40.1978034821       46.8163595824       20.2263493376  TIP3      5709            0.0000000000
     34500      5845  TIP3      H1             40.6733566511       46.7257869128       21.0852199951  TIP3      5709            0.0000000000
     34501      5845  TIP3      H2             39.2862363242       46.7842017233       20.5390581420  TIP3      5709            0.0000000000
     34502      5846  TIP3      OH2            51.9696754821       50.9918771632       20.0886401858  TIP3      5710            0.0000000000
     34503      5846  TIP3      H1             52.4217281972       51.0285268290       20.9792986225  TIP3      5710            0.0000000000
     34504      5846  TIP3      H2             51.1697429255       50.5034173435       20.3065811364  TIP3      5710            0.0000000000
     34505      5847  TIP3      OH2            56.3840984361       54.9885623371       20.9051485072  TIP3      5711            0.0000000000
     34506      5847  TIP3      H1             57.1937686028       55.4680143696       21.1207571283  TIP3      5711            0.0000000000
     34507      5847  TIP3      H2             56.2287063555       54.5125324338       21.7604851510  TIP3      5711            0.0000000000
     34508      5848  TIP3      OH2            41.2432540791       49.2869833658       22.1322763583  TIP3      5712            0.0000000000
     34509      5848  TIP3      H1             40.7834684563       48.5048663209       22.5043056051  TIP3      5712            0.0000000000
     34510      5848  TIP3      H2             42.0755549347       48.8440944736       21.8992975455  TIP3      5712            0.0000000000
     34511      5849  TIP3      OH2            47.4651059810       53.6372498359       19.0898516873  TIP3      5713            0.0000000000
     34512      5849  TIP3      H1             46.5932541946       53.7987231807       19.5350854851  TIP3      5713            0.0000000000
     34513      5849  TIP3      H2             47.3266408057       52.7121162453       18.8428517837  TIP3      5713            0.0000000000
     34514      5850  TIP3      OH2            43.2644419340       49.1011560566       18.5791137915  TIP3      5714            0.0000000000
     34515      5850  TIP3      H1             43.3101621579       48.4718696833       19.3251150227  TIP3      5714            0.0000000000
     34516      5850  TIP3      H2             44.1152227613       49.5598550954       18.6702773646  TIP3      5714            0.0000000000
     34517      5851  TIP3      OH2            49.0052406792       50.4902714173       18.1064637253  TIP3      5715            0.0000000000
     34518      5851  TIP3      H1             48.7765059275       50.5010379246       19.0617563662  TIP3      5715            0.0000000000
     34519      5851  TIP3      H2             49.0862868454       49.5170818949       17.9918814553  TIP3      5715            0.0000000000
     34520      5852  TIP3      OH2            43.6565931475       47.1226583566       20.6505638239  TIP3      5716            0.0000000000
     34521      5852  TIP3      H1             43.2371128578       46.3711288725       21.1090920270  TIP3      5716            0.0000000000
     34522      5852  TIP3      H2             44.3008046591       46.6200438408       20.1085063022  TIP3      5716            0.0000000000
     34523      5853  TIP3      OH2            45.5413965737       45.7271969819       19.1465896314  TIP3      5717            0.0000000000
     34524      5853  TIP3      H1             45.2951337064       45.8825095865       18.2071749500  TIP3      5717            0.0000000000
     34525      5853  TIP3      H2             46.5123228743       45.7221401780       19.0521325624  TIP3      5717            0.0000000000
     34526      5854  TIP3      OH2            55.0574903675       47.4019876235       18.9829849966  TIP3      5718            0.0000000000
     34527      5854  TIP3      H1             54.7831598939       47.1994886056       18.0747355670  TIP3      5718            0.0000000000
     34528      5854  TIP3      H2             54.8764793093       48.3649462518       19.0176727770  TIP3      5718            0.0000000000
     34529      5855  TIP3      OH2            46.0752052499       56.3174124768       20.5829210817  TIP3      5719            0.0000000000
     34530      5855  TIP3      H1             46.7062020136       55.9120316713       21.1880583316  TIP3      5719            0.0000000000
     34531      5855  TIP3      H2             45.9164047612       57.1904111084       20.9923980270  TIP3      5719            0.0000000000
     34532      5856  TIP3      OH2            38.9575398662       50.8003418748       20.0035448092  TIP3      5720            0.0000000000
     34533      5856  TIP3      H1             39.9211471439       50.8514169887       20.1217460184  TIP3      5720            0.0000000000
     34534      5856  TIP3      H2             38.9057805141       50.1484081444       19.2682909613  TIP3      5720            0.0000000000
     34535      5857  TIP3      OH2            54.7619992917       44.2740645453       19.6180877307  TIP3      5721            0.0000000000
     34536      5857  TIP3      H1             54.9695752991       44.6027510644       18.7294556370  TIP3      5721            0.0000000000
     34537      5857  TIP3      H2             54.3912286805       43.3699595397       19.4473833530  TIP3      5721            0.0000000000
     34538      5858  TIP3      OH2            54.1732153936       41.7076437229       19.2706173675  TIP3      5722            0.0000000000
     34539      5858  TIP3      H1             54.7657012174       41.0580766054       19.7093560372  TIP3      5722            0.0000000000
     34540      5858  TIP3      H2             53.3223831221       41.2225194298       19.2871963253  TIP3      5722            0.0000000000
     34541      5859  TIP3      OH2            56.0473438526       40.2736089026       20.6222101895  TIP3      5723            0.0000000000
     34542      5859  TIP3      H1             56.5454338614       39.7354016941       19.9619181610  TIP3      5723            0.0000000000
     34543      5859  TIP3      H2             56.8203035042       40.6526101358       21.1024963807  TIP3      5723            0.0000000000
     34544      5860  TIP3      OH2            41.0257432020       40.6075595640       19.6135632565  TIP3      5724            0.0000000000
     34545      5860  TIP3      H1             41.9868519679       40.7830855955       19.5975142715  TIP3      5724            0.0000000000
     34546      5860  TIP3      H2             40.8344696391       40.6362275152       20.5745433945  TIP3      5724            0.0000000000
     34547      5861  TIP3      OH2            48.5873357276       55.0689046777       21.0717638637  TIP3      5725            0.0000000000
     34548      5861  TIP3      H1             48.8352911059       55.8185651119       20.5212620225  TIP3      5725            0.0000000000
     34549      5861  TIP3      H2             48.1628924104       54.4738100328       20.4144370951  TIP3      5725            0.0000000000
     34550      5862  TIP3      OH2            63.0910421105       41.4163886295       19.1120036469  TIP3      5726            0.0000000000
     34551      5862  TIP3      H1             62.7021073157       41.0520703334       19.9321798982  TIP3      5726            0.0000000000
     34552      5862  TIP3      H2             62.4740910351       42.1374709382       18.8942423426  TIP3      5726            0.0000000000
     34553      5863  TIP3      OH2            57.9942032811       41.7518246092       21.7248505028  TIP3      5727            0.0000000000
     34554      5863  TIP3      H1             58.5272449265       41.9610984698       20.9471849564  TIP3      5727            0.0000000000
     34555      5863  TIP3      H2             57.4647440741       42.5608379414       21.8761729094  TIP3      5727            0.0000000000
     34556      5864  TIP3      OH2            65.0383157378       51.8817460150       18.4505057188  TIP3      5728            0.0000000000
     34557      5864  TIP3      H1             65.0752813840       51.4826505165       17.5706105568  TIP3      5728            0.0000000000
     34558      5864  TIP3      H2             65.0392640213       51.0786513853       18.9944315912  TIP3      5728            0.0000000000
     34559      5865  TIP3      OH2            61.8968286053       40.8486556902       21.5868054051  TIP3      5729            0.0000000000
     34560      5865  TIP3      H1             61.8625768537       41.5272383481       22.2869624058  TIP3      5729            0.0000000000
     34561      5865  TIP3      H2             62.3185553012       40.1219760104       22.0705793015  TIP3      5729            0.0000000000
     34562      5866  TIP3      OH2            62.0579852838       49.1318582067       18.5557055854  TIP3      5730            0.0000000000
     34563      5866  TIP3      H1             62.4328929687       48.6136987321       19.2945419228  TIP3      5730            0.0000000000
     34564      5866  TIP3      H2             62.8375744372       49.1652886408       17.9728261597  TIP3      5730            0.0000000000
     34565      5867  TIP3      OH2            63.2582778988       47.5275272222       20.5475273395  TIP3      5731            0.0000000000
     34566      5867  TIP3      H1             63.8552806303       47.5081460769       21.3039755601  TIP3      5731            0.0000000000
     34567      5867  TIP3      H2             63.5419559232       46.7047319732       20.0717740675  TIP3      5731            0.0000000000
     34568      5868  TIP3      OH2            64.2308212461       45.4319722561       19.2810535729  TIP3      5732            0.0000000000
     34569      5868  TIP3      H1             63.9228149162       45.7356468404       18.3952482001  TIP3      5732            0.0000000000
     34570      5868  TIP3      H2             64.6182700615       44.5799647255       19.0330973751  TIP3      5732            0.0000000000
     34571      5869  TIP3      OH2            64.1721289617       56.3636036796       21.0670311358  TIP3      5733            0.0000000000
     34572      5869  TIP3      H1             64.9543559237       56.2246991016       21.6209763130  TIP3      5733            0.0000000000
     34573      5869  TIP3      H2             64.5490133730       56.6741808244       20.2235916056  TIP3      5733            0.0000000000
     34574      5870  TIP3      OH2            57.9644789675       50.4133323971       19.7113695977  TIP3      5734            0.0000000000
     34575      5870  TIP3      H1             58.7631540429       50.1445844137       19.2535237528  TIP3      5734            0.0000000000
     34576      5870  TIP3      H2             57.3012079992       50.1171830907       19.0582073054  TIP3      5734            0.0000000000
     34577      5871  TIP3      OH2            60.0703543126       40.1081419913       19.6802250464  TIP3      5735            0.0000000000
     34578      5871  TIP3      H1             60.5640734472       39.3377753146       19.3317186979  TIP3      5735            0.0000000000
     34579      5871  TIP3      H2             60.5323360023       40.2503504921       20.5365361883  TIP3      5735            0.0000000000
     34580      5872  TIP3      OH2            59.3116846762       54.4503269798       18.9716262284  TIP3      5736            0.0000000000
     34581      5872  TIP3      H1             59.5145694289       54.9898936513       19.7464113044  TIP3      5736            0.0000000000
     34582      5872  TIP3      H2             60.2043548863       54.2270424212       18.6385411721  TIP3      5736            0.0000000000
     34583      5873  TIP3      OH2            10.1737243033       64.5402970055       19.7508443532  TIP3      5737            0.0000000000
     34584      5873  TIP3      H1             10.2379609179       65.1306557759       20.5359451167  TIP3      5737            0.0000000000
     34585      5873  TIP3      H2             11.1055834414       64.3425110846       19.5916148706  TIP3      5737            0.0000000000
     34586      5874  TIP3      OH2            10.4264117077       66.0730869278       22.1149400952  TIP3      5738            0.0000000000
     34587      5874  TIP3      H1             10.3007634114       65.5464967800       22.9126788522  TIP3      5738            0.0000000000
     34588      5874  TIP3      H2             11.3659109748       66.2896879265       22.1637549700  TIP3      5738            0.0000000000
     34589      5875  TIP3      OH2            16.8673197897       56.1736891155       21.7598327912  TIP3      5739            0.0000000000
     34590      5875  TIP3      H1             16.1242494719       56.4712306038       22.3598836903  TIP3      5739            0.0000000000
     34591      5875  TIP3      H2             17.0366465054       56.9990237611       21.2790322857  TIP3      5739            0.0000000000
     34592      5876  TIP3      OH2            10.0594654407       59.7974742996       19.6268118142  TIP3      5740            0.0000000000
     34593      5876  TIP3      H1              9.8278712856       60.1112276004       20.5007864330  TIP3      5740            0.0000000000
     34594      5876  TIP3      H2              9.3081069420       59.2024697337       19.4158044834  TIP3      5740            0.0000000000
     34595      5877  TIP3      OH2             2.1930426115       60.7896652624       21.2676870760  TIP3      5741            0.0000000000
     34596      5877  TIP3      H1              1.9739638454       61.2527565460       20.4294969435  TIP3      5741            0.0000000000
     34597      5877  TIP3      H2              2.2090580076       59.8664600229       21.0135433084  TIP3      5741            0.0000000000
     34598      5878  TIP3      OH2             2.9436102120       65.2686776615       20.3152370591  TIP3      5742            0.0000000000
     34599      5878  TIP3      H1              3.5790963650       65.7716499791       20.8505289138  TIP3      5742            0.0000000000
     34600      5878  TIP3      H2              2.0835225499       65.5952953248       20.6585952143  TIP3      5742            0.0000000000
     34601      5879  TIP3      OH2             1.7140380458       62.6286576234       19.2360050121  TIP3      5743            0.0000000000
     34602      5879  TIP3      H1              2.4089875499       63.2529022644       19.4972594802  TIP3      5743            0.0000000000
     34603      5879  TIP3      H2              1.3507805302       63.0741086275       18.4446413145  TIP3      5743            0.0000000000
     34604      5880  TIP3      OH2             7.5777377862       63.9579517531       19.4150928560  TIP3      5744            0.0000000000
     34605      5880  TIP3      H1              7.3756863062       64.1432634338       18.4833394433  TIP3      5744            0.0000000000
     34606      5880  TIP3      H2              8.5509304584       64.1237890620       19.4266554712  TIP3      5744            0.0000000000
     34607      5881  TIP3      OH2            18.5720199910       65.1306915928       20.9028304648  TIP3      5745            0.0000000000
     34608      5881  TIP3      H1             17.6071188132       65.0154199082       20.7607558239  TIP3      5745            0.0000000000
     34609      5881  TIP3      H2             18.6544965746       65.0391769851       21.8609271589  TIP3      5745            0.0000000000
     34610      5882  TIP3      OH2            15.8967648195       60.4229603704       18.3070694522  TIP3      5746            0.0000000000
     34611      5882  TIP3      H1             16.2359622323       59.8154723155       18.9627437988  TIP3      5746            0.0000000000
     34612      5882  TIP3      H2             15.0211462843       60.0375969041       18.1345546845  TIP3      5746            0.0000000000
     34613      5883  TIP3      OH2            18.3993954066       58.1682253846       20.6228020350  TIP3      5747            0.0000000000
     34614      5883  TIP3      H1             18.4767783061       57.6932835773       19.7632024032  TIP3      5747            0.0000000000
     34615      5883  TIP3      H2             19.2751026025       58.0471433494       21.0298470686  TIP3      5747            0.0000000000
     34616      5884  TIP3      OH2             2.0151081710       56.9938555437       21.3650052206  TIP3      5748            0.0000000000
     34617      5884  TIP3      H1              2.8133154548       57.1653593803       21.8781878764  TIP3      5748            0.0000000000
     34618      5884  TIP3      H2              1.5846009014       56.3165165918       21.9522039482  TIP3      5748            0.0000000000
     34619      5885  TIP3      OH2            29.7925337373       63.5765544707       20.5267639304  TIP3      5749            0.0000000000
     34620      5885  TIP3      H1             30.2444225521       63.0403757830       21.1980001041  TIP3      5749            0.0000000000
     34621      5885  TIP3      H2             30.4997676290       63.6561820932       19.8578353674  TIP3      5749            0.0000000000
     34622      5886  TIP3      OH2            32.4064186233       64.6803358876       21.5785126740  TIP3      5750            0.0000000000
     34623      5886  TIP3      H1             33.0265963350       65.1729422071       22.1315568465  TIP3      5750            0.0000000000
     34624      5886  TIP3      H2             32.3415034894       65.2381546268       20.7874116170  TIP3      5750            0.0000000000
     34625      5887  TIP3      OH2            25.8160652129       60.9920708635       19.2297465862  TIP3      5751            0.0000000000
     34626      5887  TIP3      H1             25.5486871654       60.2634248782       19.8097614969  TIP3      5751            0.0000000000
     34627      5887  TIP3      H2             25.0188063480       61.2200937820       18.7330398244  TIP3      5751            0.0000000000
     34628      5888  TIP3      OH2            20.3773146043       61.0408286455       21.9141076224  TIP3      5752            0.0000000000
     34629      5888  TIP3      H1             20.2666018267       60.8860456330       20.9686328477  TIP3      5752            0.0000000000
     34630      5888  TIP3      H2             20.1353656251       61.9777997551       22.0229671155  TIP3      5752            0.0000000000
     34631      5889  TIP3      OH2            26.8573853533       64.1400132347       19.8692263808  TIP3      5753            0.0000000000
     34632      5889  TIP3      H1             26.6091202705       64.1424372280       18.9302618026  TIP3      5753            0.0000000000
     34633      5889  TIP3      H2             27.7465616264       63.7541614854       19.8833652584  TIP3      5753            0.0000000000
     34634      5890  TIP3      OH2            34.8014270173       60.7754252817       19.0577967093  TIP3      5754            0.0000000000
     34635      5890  TIP3      H1             35.5402721238       60.3814032605       19.5443663897  TIP3      5754            0.0000000000
     34636      5890  TIP3      H2             34.0939131740       60.1844472176       19.3568074091  TIP3      5754            0.0000000000
     34637      5891  TIP3      OH2            36.8439476097       58.7064773471       20.6331452329  TIP3      5755            0.0000000000
     34638      5891  TIP3      H1             37.3048154585       58.2362248746       19.9028036421  TIP3      5755            0.0000000000
     34639      5891  TIP3      H2             37.5271399149       58.8788652184       21.2926206372  TIP3      5755            0.0000000000
     34640      5892  TIP3      OH2            23.0520455390       59.2572325155       20.4344367112  TIP3      5756            0.0000000000
     34641      5892  TIP3      H1             23.1591704193       58.4401447926       19.8994020549  TIP3      5756            0.0000000000
     34642      5892  TIP3      H2             22.7217156801       58.8245917140       21.2520037355  TIP3      5756            0.0000000000
     34643      5893  TIP3      OH2            48.2232016625       64.5899180249       19.5442342270  TIP3      5757            0.0000000000
     34644      5893  TIP3      H1             48.1759926843       64.6887017852       20.5245081563  TIP3      5757            0.0000000000
     34645      5893  TIP3      H2             48.6390509401       63.7134360483       19.4852718105  TIP3      5757            0.0000000000
     34646      5894  TIP3      OH2            47.8715574718       59.0086571332       19.7775259047  TIP3      5758            0.0000000000
     34647      5894  TIP3      H1             47.2146130575       59.3455953531       20.4104728454  TIP3      5758            0.0000000000
     34648      5894  TIP3      H2             47.2428526518       58.6942684354       19.0935537272  TIP3      5758            0.0000000000
     34649      5895  TIP3      OH2            44.1924302201       60.1677097379       19.2352411576  TIP3      5759            0.0000000000
     34650      5895  TIP3      H1             44.0039684447       59.5950046470       20.0055666531  TIP3      5759            0.0000000000
     34651      5895  TIP3      H2             43.3260774146       60.5161537322       19.0173694818  TIP3      5759            0.0000000000
     34652      5896  TIP3      OH2            38.6622813533       61.0128810955       21.8081892872  TIP3      5760            0.0000000000
     34653      5896  TIP3      H1             39.3427928168       61.3823845979       21.2139797036  TIP3      5760            0.0000000000
     34654      5896  TIP3      H2             39.1202678377       60.3819392218       22.3835786470  TIP3      5760            0.0000000000
     34655      5897  TIP3      OH2            50.5656035269       60.6831503498       20.7585997075  TIP3      5761            0.0000000000
     34656      5897  TIP3      H1             49.9980820152       60.0010873006       21.1521523711  TIP3      5761            0.0000000000
     34657      5897  TIP3      H2             50.7507579821       61.2563694511       21.5134556972  TIP3      5761            0.0000000000
     34658      5898  TIP3      OH2            39.2865693696       65.3766566221       19.6260600412  TIP3      5762            0.0000000000
     34659      5898  TIP3      H1             39.6284585321       65.8998211458       20.3853310923  TIP3      5762            0.0000000000
     34660      5898  TIP3      H2             38.4008474793       65.8000386048       19.5144127838  TIP3      5762            0.0000000000
     34661      5899  TIP3      OH2            40.2259185658       62.6417457580       20.1389403669  TIP3      5763            0.0000000000
     34662      5899  TIP3      H1             40.3000397662       63.5921649051       19.9302638562  TIP3      5763            0.0000000000
     34663      5899  TIP3      H2             40.2303741227       62.2378522463       19.2545644766  TIP3      5763            0.0000000000
     34664      5900  TIP3      OH2            45.1138631345       63.9556468221       20.1001313993  TIP3      5764            0.0000000000
     34665      5900  TIP3      H1             45.9516661361       63.5996031868       20.4372445214  TIP3      5764            0.0000000000
     34666      5900  TIP3      H2             45.0412155754       64.7484787255       20.6564047797  TIP3      5764            0.0000000000
     34667      5901  TIP3      OH2            55.5926025442       66.4267532878       21.1191551799  TIP3      5765            0.0000000000
     34668      5901  TIP3      H1             55.7464118105       66.3713791464       20.1594640558  TIP3      5765            0.0000000000
     34669      5901  TIP3      H2             56.3085320041       65.8803842243       21.4502790042  TIP3      5765            0.0000000000
     34670      5902  TIP3      OH2            54.0744438559       62.5006490933       19.1659057338  TIP3      5766            0.0000000000
     34671      5902  TIP3      H1             54.5730194853       62.9213869847       18.4558716685  TIP3      5766            0.0000000000
     34672      5902  TIP3      H2             54.4136648329       61.5835906365       19.1513442054  TIP3      5766            0.0000000000
     34673      5903  TIP3      OH2            54.4651181698       59.8144231023       18.6218215173  TIP3      5767            0.0000000000
     34674      5903  TIP3      H1             54.9298176138       59.4217001888       19.4006875294  TIP3      5767            0.0000000000
     34675      5903  TIP3      H2             53.5412271114       59.6153482618       18.8402902728  TIP3      5767            0.0000000000
     34676      5904  TIP3      OH2            56.0850530222       58.5665970837       20.4043880279  TIP3      5768            0.0000000000
     34677      5904  TIP3      H1             55.9525777176       57.8131594206       19.7961031796  TIP3      5768            0.0000000000
     34678      5904  TIP3      H2             56.8573784996       58.2243836594       20.8885509997  TIP3      5768            0.0000000000
     34679      5905  TIP3      OH2            41.7350871201       59.0073244155       20.3003071481  TIP3      5769            0.0000000000
     34680      5905  TIP3      H1             41.3518577576       58.1848194169       19.9479275490  TIP3      5769            0.0000000000
     34681      5905  TIP3      H2             41.7570716040       58.7860154018       21.2483939871  TIP3      5769            0.0000000000
     34682      5906  TIP3      OH2            63.2359067285       60.4301086368       19.3522163353  TIP3      5770            0.0000000000
     34683      5906  TIP3      H1             62.6910526040       59.6928336669       19.6826083110  TIP3      5770            0.0000000000
     34684      5906  TIP3      H2             62.5817352019       60.9236483334       18.8089473989  TIP3      5770            0.0000000000
     34685      5907  TIP3      OH2            63.7106174562       63.8143061657       18.9989973295  TIP3      5771            0.0000000000
     34686      5907  TIP3      H1             63.0142519635       63.2235079980       18.6553141428  TIP3      5771            0.0000000000
     34687      5907  TIP3      H2             64.3780448896       63.7197042072       18.2909497229  TIP3      5771            0.0000000000
     34688      5908  TIP3      OH2            58.5062233842       57.6713156951       21.2818607220  TIP3      5772            0.0000000000
     34689      5908  TIP3      H1             59.0770810623       58.1941312985       20.6867708485  TIP3      5772            0.0000000000
     34690      5908  TIP3      H2             58.7751205463       58.0210027357       22.1694119894  TIP3      5772            0.0000000000
     34691      5909  TIP3      OH2            60.6258783161       58.8667294502       20.1636619825  TIP3      5773            0.0000000000
     34692      5909  TIP3      H1             60.9152653043       58.0983584268       19.6147730387  TIP3      5773            0.0000000000
     34693      5909  TIP3      H2             60.6220465424       58.4814553506       21.0588126466  TIP3      5773            0.0000000000
     34694      5910  POT       POT            40.0647538213        6.2495157713       15.9981431400  IONS      1               0.0000000000
     34695      5911  POT       POT            56.3908419124       52.4777991554        3.4674424664  IONS      2               0.0000000000
     34696      5912  POT       POT             9.6965928525       29.2726620887       75.5966409949  IONS      3               0.0000000000
     34697      5913  POT       POT            13.3746578883       26.1228484518       16.4964716747  IONS      4               0.0000000000
     34698      5914  POT       POT            42.9232715112       65.0334645052       13.0015979377  IONS      5               0.0000000000
     34699      5915  POT       POT            64.8306319338       34.8340767269       78.5747052618  IONS      6               0.0000000000
     34700      5916  POT       POT            39.6141647811       50.3832281510       74.1928765652  IONS      7               0.0000000000
     34701      5917  POT       POT             6.0735163526        7.3399217778        3.9273520186  IONS      8               0.0000000000
     34702      5918  POT       POT            46.9402175427       59.8600102021       14.3343124749  IONS      9               0.0000000000
     34703      5919  POT       POT            26.3134299567       61.9942801544       71.9980166426  IONS      10              0.0000000000
     34704      5920  POT       POT            60.6744801828       29.8410934055       11.9714322148  IONS      11              0.0000000000
     34705      5921  POT       POT            14.6155064996       15.8522485889       12.1895711049  IONS      12              0.0000000000
     34706      5922  POT       POT            42.5510570497       31.8496852169       79.4609464658  IONS      13              0.0000000000
     34707      5923  POT       POT            14.3966141118       53.2984400091       74.6135826996  IONS      14              0.0000000000
     34708      5924  POT       POT             5.8148727000       25.8766028477       17.5949349573  IONS      15              0.0000000000
     34709      5925  POT       POT            19.2625120970        2.4069694858       14.9996928863  IONS      16              0.0000000000
     34710      5926  POT       POT            65.6755730016       31.5450105100       71.3645292579  IONS      17              0.0000000000
     34711      5927  POT       POT            64.4025362616       46.8911953966       68.7364139769  IONS      18              0.0000000000
     34712      5928  POT       POT            27.1856272919       26.3287571812       74.1143016645  IONS      19              0.0000000000
     34713      5929  POT       POT            16.8393644932       64.4399132170       15.4037707294  IONS      20              0.0000000000
     34714      5930  POT       POT            35.0323533596       65.6995300849        5.4035814466  IONS      21              0.0000000000
     34715      5931  POT       POT            57.3107811715       39.4151735827       85.3603417836  IONS      22              0.0000000000
     34716      5932  POT       POT            29.1621840014       40.2501070599       81.9644100117  IONS      23              0.0000000000
     34717      5933  POT       POT             5.0939431708       12.8853286687       70.5944485005  IONS      24              0.0000000000
     34718      5934  POT       POT            49.5388222896       20.1325147781       82.8691113781  IONS      25              0.0000000000
     34719      5935  POT       POT            41.9346579267       17.4870072267       79.3399184090  IONS      26              0.0000000000
     34720      5936  POT       POT             5.5239178160        0.1295274466       23.9067843072  IONS      27              0.0000000000
     34721      5937  POT       POT            56.3020900837       42.6353545135       81.0040131189  IONS      28              0.0000000000
     34722      5938  POT       POT            10.3060544040        1.1745197524       74.4407583879  IONS      29              0.0000000000
     34723      5939  POT       POT            17.2744067566        9.1442445642       72.4856322205  IONS      30              0.0000000000
     34724      5940  POT       POT             8.9145690087       47.0335586848       68.7189412637  IONS      31              0.0000000000
     34725      5941  POT       POT            10.8037386231       39.6032874129       65.6581364779  IONS      32              0.0000000000
     34726      5942  POT       POT            26.2293358947       43.0399679329       71.7372610410  IONS      33              0.0000000000
     34727      5943  POT       POT            55.0058633671       46.9933269098       72.4999560197  IONS      34              0.0000000000
     34728      5944  POT       POT            24.1882978183       57.1212995684        7.7409744958  IONS      35              0.0000000000
     34729      5945  POT       POT            26.3011045695       26.7844631803       68.2027221291  IONS      36              0.0000000000
     34730      5946  CLA       CLA             5.5833971735       57.0073960496       82.9426722134  IONS      37              0.0000000000
     34731      5947  CLA       CLA            19.8055572567       11.0128715196        0.0976835737  IONS      38              0.0000000000
     34732      5948  CLA       CLA            54.5211583232       53.6740408023       84.4049076408  IONS      39              0.0000000000
     34733      5949  CLA       CLA            26.0554658558       13.8316923464       13.0680016868  IONS      40              0.0000000000
     34734      5950  CLA       CLA            50.1591357646       46.1798414472       82.0100791307  IONS      41              0.0000000000
     34735      5951  CLA       CLA            49.0828355559       42.1292991313       19.0692873919  IONS      42              0.0000000000
     34736      5952  CLA       CLA            22.7772866379       45.6105847382       84.7818016848  IONS      43              0.0000000000
     34737      5953  CLA       CLA             1.0900691833       27.7374599133       84.4364490395  IONS      44              0.0000000000
     34738      5954  CLA       CLA            14.7796690512       29.4309405446       10.9885952316  IONS      45              0.0000000000
     34739      5955  CLA       CLA            46.1022729187       44.8271140143        4.0131143035  IONS      46              0.0000000000
     34740      5956  CLA       CLA            35.2629581161       29.1210991912       71.8497203846  IONS      47              0.0000000000
     34741      5957  CLA       CLA            40.2364495449       61.8164836482       74.4298179729  IONS      48              0.0000000000
     34742      5958  CLA       CLA            65.7200720861       21.9714040898       78.2955364142  IONS      49              0.0000000000
     34743      5959  CLA       CLA            32.4553233593       19.8136721401       12.7905240095  IONS      50              0.0000000000
